LAMMPS data file via write_data, version 29 Aug 2024, timestep = 10000000, units = lj

18 atoms
1 atom types
17 bonds
1 bond types
16 angles
1 angle types
15 dihedrals
1 dihedral types

-13.5 36.5 xlo xhi
-25 25 ylo yhi
-25 25 zlo zhi

Masses

1 1

Bond Coeffs # harmonic

1 30 1.4

Angle Coeffs # harmonic

1 18 140

Dihedral Coeffs # multi/harmonic

1 2 2 2 2 2

Atoms # full

12 1 1 -2 -10.032704107195173 -9.655628918390121 -24.816424973697146 0 -2 4
11 1 1 -2 -8.628738751516792 -8.982935091852028 -24.174112341897963 0 -2 4
9 1 1 -2 -5.926182029878052 -8.874821252809475 -23.48362295482627 0 -2 4
10 1 1 -2 -7.237752733435144 -9.1029374249549 -24.24991374297694 0 -2 4
8 1 1 -2 -5.124037178082518 -7.714168400832903 -22.86913782566834 0 -2 4
7 1 1 -2 -4.867116651652151 -7.240056160957182 -21.661083065475413 0 -2 4
5 1 1 -2 -5.869966493507966 -6.006988057956941 -19.792927764484272 0 -2 4
6 1 1 -2 -5.0850742845752555 -6.0285096490757715 -20.95996663302061 0 -2 4
4 1 1 -2 -6.511342652061287 -4.917431916214587 -19.0898782340533 0 -2 4
3 1 1 -2 -6.51043340418054 -4.365722011389306 -17.708716612743366 0 -2 4
2 1 1 -2 -7.38519138746894 -4.083535279805763 -16.5641055339311 0 -2 4
1 1 1 -2 -7.569719284337913 -4.316118224075134 -15.038343668514711 0 -2 4
18 1 1 -2 35.005975073862224 -7.184921579068638 21.132695998384 -1 -2 3
14 1 1 -2 -11.736503487363512 -9.74012150402662 23.546847921134276 0 -2 3
15 1 1 -2 -12.55815744963939 -9.312073923350994 22.96365154553313 0 -2 3
13 1 1 -2 -11.23735809776553 -9.397442755237225 24.620876070395923 0 -2 3
16 1 1 -2 -13.056044632459082 -8.616837004617004 21.893650272702306 0 -2 3
17 1 1 -2 35.648158290094315 -8.344748418809994 21.350404213419047 -1 -2 3

Velocities

12 -0.9304989545700059 -0.45297803434837597 0.567531036394542
11 0.21662654416683758 -1.2209492234189268 0.0186355006193277
9 -0.09122777375512806 -1.3850780528616413 -1.0364298578192137
10 -1.3301489658713037 0.1832596128156112 -3.159138678950807
8 -0.22742029274265563 1.2150969530740534 0.8542422911586782
7 0.8106845678846272 0.5199914939173164 0.0911249348565121
5 1.0528782804263417 0.7895154824787263 1.1869078246446534
6 0.25326337264647314 0.20495298329532954 -0.003249435993394695
4 -0.3975931848485918 0.3127708759707792 0.8050951270995276
3 -0.5088941510090681 -1.0067304434369155 -0.9773868547850034
2 -0.3411007235027035 -1.042062614561885 1.020922787775001
1 -1.1078707431139683 -0.06011879913745694 1.0254562915460028
18 0.49423258340753257 -1.1336708915172022 -0.3357360428834303
14 -0.3006765497356071 1.4458909027512634 0.4060843704562977
15 -0.4793182176984255 -0.22472659898098438 -1.138049039548345
13 0.2263906676193524 -0.19275722675037907 1.4758181216608282
16 0.18600296658998644 1.7973484771670358 -2.456619893583235
17 -0.26649983716550235 0.04964321588325562 0.4117787713327917

Bonds

1 1 12 13
2 1 11 12
3 1 9 10
4 1 10 11
5 1 8 9
6 1 7 8
7 1 5 6
8 1 6 7
9 1 4 5
10 1 3 4
11 1 2 3
12 1 1 2
13 1 14 15
14 1 15 16
15 1 13 14
16 1 16 17
17 1 17 18

Angles

1 1 11 12 13
2 1 10 11 12
3 1 8 9 10
4 1 9 10 11
5 1 7 8 9
6 1 6 7 8
7 1 4 5 6
8 1 5 6 7
9 1 3 4 5
10 1 2 3 4
11 1 1 2 3
12 1 13 14 15
13 1 14 15 16
14 1 12 13 14
15 1 15 16 17
16 1 16 17 18

Dihedrals

1 1 11 12 13 14
2 1 10 11 12 13
3 1 8 9 10 11
4 1 9 10 11 12
5 1 7 8 9 10
6 1 6 7 8 9
7 1 4 5 6 7
8 1 5 6 7 8
9 1 3 4 5 6
10 1 2 3 4 5
11 1 1 2 3 4
12 1 13 14 15 16
13 1 14 15 16 17
14 1 12 13 14 15
15 1 15 16 17 18
