LAMMPS data file via write_data, version 29 Aug 2024, timestep = 50159, units = lj

24 atoms
1 atom types
23 bonds
1 bond types
22 angles
1 angle types
21 dihedrals
1 dihedral types

-13.5 36.5 xlo xhi
-25 25 ylo yhi
-25 25 zlo zhi

Masses

1 1

Bond Coeffs # harmonic

1 30 1.4

Angle Coeffs # harmonic

1 10 140

Atoms # full

5 1 1 -2 10.459716259180853 -6.9574420550725184 -3.3475921346134045 0 0 0
6 1 1 -2 10.2334184794392 -5.69540973589585 -3.048691888515621 0 0 0
7 1 1 -2 11.16016639357049 -4.338969801691127 -3.0460433858847495 0 0 0
2 1 1 -2 7.854718836835793 -8.517615292088927 -1.9038037611783916 0 0 0
3 1 1 -2 9.12271525469624 -7.689914611697626 -2.044881695144998 0 0 0
4 1 1 -2 9.959771004169504 -7.840188973196712 -2.5316157669606847 0 0 0
8 1 1 -2 12.477690905859795 -4.119329832741776 -2.3482754401866166 0 0 0
1 1 1 -2 6.896916737119747 -8.449390194636203 -1.1034069163789992 0 0 0
10 1 1 -2 12.973973157517628 -5.294061343537626 -0.2581143775565343 0 0 0
9 1 1 -2 13.165410467626304 -4.264012674354796 -1.2808090662427787 0 0 0
17 1 1 -2 13.811011322551465 -10.619766581930204 2.4632354141465633 0 0 0
18 1 1 -2 15.044542803622345 -11.369247745487078 2.5336938540727654 0 0 0
15 1 1 -2 12.403688904081971 -9.067835586461186 1.8413054147890182 0 0 0
14 1 1 -2 11.726115784805875 -8.168332613831547 2.5412734764352134 0 0 0
16 1 1 -2 13.63732245145724 -9.34046542244357 1.928312172130192 0 0 0
13 1 1 -2 12.142639515192393 -7.2245934630208515 3.1406396435775896 0 0 0
12 1 1 -2 12.465806829218003 -5.926228166161653 2.305172796501289 0 0 0
11 1 1 -2 12.238018093066621 -5.410073029480675 0.8715323348133557 0 0 0
19 1 1 -2 16.229658564913038 -10.607574329212824 3.2434721868417022 0 0 0
20 1 1 -2 16.804380088142754 -10.775834456986917 4.714460330565467 0 0 0
23 1 1 -2 20.512732262821597 -11.098491321116795 5.7790160507644215 0 0 0
24 1 1 -2 21.184398503084363 -12.26096227158374 6.299168750191212 0 0 0
21 1 1 -2 17.797330856248745 -10.810142928764696 5.791868360793569 0 0 0
22 1 1 -2 19.262002464103034 -10.541420314902565 5.559199556237936 0 0 0

Velocities

5 -0.41901176917216665 -1.4597975547310542 -1.010480709891056
6 0.9675108889365278 -0.6512757792743809 -0.6278975297268478
7 0.21300413002365493 0.5282745845955932 -0.7112647979181667
2 0.8735692851721026 -1.085753080521601 -0.2556490321282436
3 -1.0562118845902784 -0.5470200370323679 1.0158565626491731
4 0.5072732745290446 -0.8238864430903429 1.651513663090989
8 1.5872865801028804 -0.10939307236704908 0.646732474563506
1 -0.3866918658816512 1.1919294561177025 -1.6549230842695182
10 1.0891606088189605 0.08657794578902299 0.39661223424964553
9 -0.01519506829281862 -1.9915213922982138 1.4425255089072642
17 -0.6085896763252151 -0.5118529712200036 0.19073037537244603
18 0.1892200260110131 -0.04339547570301923 0.5601885112768095
15 0.13033425732226606 -0.03672175205469737 0.10596660383284379
14 0.6881774423812086 -0.44017953492394624 0.2648950987431233
16 -0.9027267308788961 -0.23924146846655048 -1.7357160713807749
13 1.2272133674417023 1.5355761515477329 -0.21418216402856974
12 -1.399639103563673 1.0295779613248457 -1.6312454023847303
11 0.5899665409082891 -0.8197877558652685 -0.21402128914276344
19 0.09278881442228691 -1.212114796874864 -1.107785048496989
20 -0.7550803155799004 -0.6414675440791745 2.2297410707865475
23 0.04386426944225918 -0.009397311226646865 -0.8041050317377303
24 -0.8111941514229745 -0.9235703942444055 -0.7627255034369868
21 -0.613564262766878 -0.46920207220620697 -1.3097384537494228
22 1.8879414560476426 0.5155472468192559 1.9869787851926322

Bonds

1 1 5 6
2 1 6 7
3 1 7 8
4 1 2 3
5 1 3 4
6 1 4 5
7 1 8 9
8 1 1 2
9 1 10 11
10 1 9 10
11 1 17 18
12 1 18 19
13 1 15 16
14 1 14 15
15 1 16 17
16 1 13 14
17 1 12 13
18 1 11 12
19 1 19 20
20 1 20 21
21 1 23 24
22 1 21 22
23 1 22 23

Angles

1 1 4 5 6
2 1 5 6 7
3 1 6 7 8
4 1 1 2 3
5 1 2 3 4
6 1 3 4 5
7 1 7 8 9
8 1 9 10 11
9 1 8 9 10
10 1 16 17 18
11 1 17 18 19
12 1 14 15 16
13 1 13 14 15
14 1 15 16 17
15 1 12 13 14
16 1 11 12 13
17 1 10 11 12
18 1 18 19 20
19 1 19 20 21
20 1 22 23 24
21 1 20 21 22
22 1 21 22 23

Dihedrals

1 1 4 5 6 7
2 1 5 6 7 8
3 1 6 7 8 9
4 1 1 2 3 4
5 1 2 3 4 5
6 1 3 4 5 6
7 1 7 8 9 10
8 1 9 10 11 12
9 1 8 9 10 11
10 1 16 17 18 19
11 1 17 18 19 20
12 1 14 15 16 17
13 1 13 14 15 16
14 1 15 16 17 18
15 1 12 13 14 15
16 1 11 12 13 14
17 1 10 11 12 13
18 1 18 19 20 21
19 1 19 20 21 22
20 1 20 21 22 23
21 1 21 22 23 24
