ITEM: TIMESTEP
0
ITEM: NUMBER OF ATOMS
24
ITEM: BOX BOUNDS pp pp pp
-1.3500000000000000e+01 3.6500000000000000e+01
-2.5000000000000000e+01 2.5000000000000000e+01
-2.5000000000000000e+01 2.5000000000000000e+01
ITEM: ATOMS id type xs ys zs
1 1 0.480911 0.45756 0.245736
3 1 0.464571 0.463889 0.278706
2 1 0.477569 0.465361 0.262846
5 1 0.472256 0.464192 0.316465
4 1 0.468722 0.473057 0.294532
6 1 0.482613 0.458467 0.328514
7 1 0.482238 0.454244 0.343967
8 1 0.489301 0.436415 0.354184
10 1 0.496405 0.420207 0.38864
9 1 0.485031 0.427996 0.375123
24 1 0.548166 0.227692 0.421662
23 1 0.552152 0.249738 0.428348
22 1 0.559088 0.266671 0.427758
21 1 0.55434 0.280873 0.431141
20 1 0.555696 0.298511 0.428642
19 1 0.548771 0.313377 0.421201
18 1 0.547797 0.328856 0.438851
13 1 0.478523 0.368016 0.421917
14 1 0.485345 0.350751 0.423915
12 1 0.48406 0.382516 0.408454
11 1 0.490132 0.404698 0.404101
17 1 0.528383 0.334701 0.448541
16 1 0.519361 0.34537 0.444392
15 1 0.498259 0.350513 0.440502
ITEM: TIMESTEP
159
ITEM: NUMBER OF ATOMS
24
ITEM: BOX BOUNDS pp pp pp
-1.3500000000000000e+01 3.6500000000000000e+01
-2.5000000000000000e+01 2.5000000000000000e+01
-2.5000000000000000e+01 2.5000000000000000e+01
ITEM: ATOMS id type xs ys zs
1 1 0.485978 0.447748 0.224634
3 1 0.456481 0.471058 0.261455
2 1 0.478987 0.463896 0.246414
5 1 0.461845 0.487381 0.311193
4 1 0.449928 0.481748 0.28649
6 1 0.484792 0.480961 0.325899
7 1 0.49911 0.45853 0.334605
8 1 0.501315 0.44185 0.356986
9 1 0.496066 0.442053 0.384489
24 1 0.541616 0.206869 0.413182
23 1 0.548461 0.227168 0.431213
22 1 0.564966 0.249726 0.43286
21 1 0.563102 0.27765 0.433736
20 1 0.563877 0.299748 0.416558
19 1 0.561705 0.327651 0.417393
18 1 0.554076 0.348055 0.434985
13 1 0.465776 0.351478 0.417012
14 1 0.470947 0.335144 0.439158
12 1 0.474091 0.375788 0.405882
11 1 0.491579 0.39698 0.411273
17 1 0.537865 0.352047 0.457463
16 1 0.513922 0.342704 0.468573
15 1 0.48888 0.333074 0.460563
10 1 0.494324 0.424365 0.406124
ITEM: TIMESTEP
1000
ITEM: NUMBER OF ATOMS
24
ITEM: BOX BOUNDS pp pp pp
-1.3500000000000000e+01 3.6500000000000000e+01
-2.5000000000000000e+01 2.5000000000000000e+01
-2.5000000000000000e+01 2.5000000000000000e+01
ITEM: ATOMS id type xs ys zs
1 1 0.46449 0.455787 0.23969
3 1 0.49354 0.43619 0.277797
2 1 0.476499 0.451956 0.261679
4 1 0.49468 0.430394 0.305177
5 1 0.506186 0.425303 0.332519
7 1 0.52668 0.429946 0.378904
22 1 0.589992 0.230302 0.382708
6 1 0.523745 0.432891 0.348612
24 1 0.546163 0.236235 0.349665
23 1 0.572902 0.222709 0.35955
17 1 0.530411 0.331565 0.438876
9 1 0.493914 0.408955 0.420852
16 1 0.527785 0.361684 0.451878
21 1 0.589036 0.24848 0.405912
20 1 0.575316 0.273139 0.422871
14 1 0.490354 0.379459 0.479643
19 1 0.559052 0.296432 0.425466
13 1 0.464699 0.367535 0.470678
12 1 0.45091 0.365748 0.446232
18 1 0.538238 0.306847 0.429475
11 1 0.456874 0.385271 0.426583
10 1 0.474641 0.395522 0.411982
15 1 0.515374 0.375175 0.470456
8 1 0.514654 0.424486 0.404993
ITEM: TIMESTEP
2000
ITEM: NUMBER OF ATOMS
24
ITEM: BOX BOUNDS pp pp pp
-1.3500000000000000e+01 3.6500000000000000e+01
-2.5000000000000000e+01 2.5000000000000000e+01
-2.5000000000000000e+01 2.5000000000000000e+01
ITEM: ATOMS id type xs ys zs
4 1 0.488985 0.412068 0.317725
3 1 0.482268 0.433423 0.300206
2 1 0.481183 0.46129 0.29009
1 1 0.468937 0.479859 0.299299
24 1 0.57029 0.254893 0.333697
23 1 0.586012 0.258582 0.353814
5 1 0.503087 0.401284 0.338158
22 1 0.597429 0.257713 0.379621
21 1 0.600133 0.281741 0.38992
20 1 0.594142 0.305289 0.394517
8 1 0.449902 0.387883 0.392574
6 1 0.497636 0.408314 0.365039
7 1 0.478311 0.399285 0.382717
18 1 0.555659 0.332848 0.418277
19 1 0.578819 0.32213 0.411219
17 1 0.542865 0.361263 0.43107
9 1 0.440728 0.396442 0.418481
16 1 0.55183 0.380685 0.451597
10 1 0.434383 0.41046 0.44258
13 1 0.491947 0.413033 0.477939
15 1 0.539885 0.388998 0.475617
11 1 0.448876 0.423283 0.461911
12 1 0.473026 0.427013 0.465176
14 1 0.521172 0.403156 0.484553
ITEM: TIMESTEP
3000
ITEM: NUMBER OF ATOMS
24
ITEM: BOX BOUNDS pp pp pp
-1.3500000000000000e+01 3.6500000000000000e+01
-2.5000000000000000e+01 2.5000000000000000e+01
-2.5000000000000000e+01 2.5000000000000000e+01
ITEM: ATOMS id type xs ys zs
4 1 0.511395 0.413148 0.317445
3 1 0.52121 0.441435 0.307188
2 1 0.511554 0.463711 0.297858
1 1 0.486395 0.477156 0.293319
6 1 0.481985 0.396487 0.360836
8 1 0.470359 0.425177 0.395866
5 1 0.486341 0.404668 0.3332
7 1 0.464187 0.40522 0.37807
18 1 0.540305 0.346989 0.439497
19 1 0.545897 0.323348 0.434395
17 1 0.536859 0.35961 0.467051
9 1 0.480037 0.423687 0.428064
16 1 0.545584 0.375687 0.486994
10 1 0.469853 0.435927 0.448902
13 1 0.499364 0.430175 0.513124
15 1 0.545675 0.398574 0.501953
11 1 0.464735 0.42108 0.479039
12 1 0.47296 0.420927 0.502975
14 1 0.526745 0.418585 0.507927
23 1 0.602869 0.252341 0.403788
20 1 0.543008 0.288897 0.432038
21 1 0.558123 0.268624 0.413019
22 1 0.585961 0.269607 0.402921
24 1 0.604345 0.225727 0.400941
ITEM: TIMESTEP
4000
ITEM: NUMBER OF ATOMS
24
ITEM: BOX BOUNDS pp pp pp
-1.3500000000000000e+01 3.6500000000000000e+01
-2.5000000000000000e+01 2.5000000000000000e+01
-2.5000000000000000e+01 2.5000000000000000e+01
ITEM: ATOMS id type xs ys zs
4 1 0.542074 0.412516 0.33558
3 1 0.525034 0.431333 0.316419
1 1 0.502141 0.47796 0.31153
2 1 0.513815 0.452849 0.322677
5 1 0.529159 0.409566 0.361256
6 1 0.511477 0.422626 0.38598
13 1 0.521002 0.435457 0.495101
21 1 0.573077 0.28133 0.41003
24 1 0.579357 0.24817 0.459839
20 1 0.560822 0.307125 0.420961
22 1 0.562617 0.25795 0.417352
19 1 0.571516 0.32265 0.44181
9 1 0.452145 0.43868 0.420748
17 1 0.568835 0.359946 0.477877
18 1 0.575956 0.3308 0.468782
10 1 0.465823 0.46242 0.442814
11 1 0.481503 0.458559 0.467824
16 1 0.551966 0.375271 0.491536
12 1 0.503977 0.450311 0.482347
14 1 0.547414 0.421068 0.494718
15 1 0.554961 0.397559 0.503886
23 1 0.555856 0.246117 0.44153
8 1 0.471547 0.419067 0.41569
7 1 0.497691 0.41518 0.407833
ITEM: TIMESTEP
5000
ITEM: NUMBER OF ATOMS
24
ITEM: BOX BOUNDS pp pp pp
-1.3500000000000000e+01 3.6500000000000000e+01
-2.5000000000000000e+01 2.5000000000000000e+01
-2.5000000000000000e+01 2.5000000000000000e+01
ITEM: ATOMS id type xs ys zs
3 1 0.546982 0.419139 0.313995
1 1 0.561901 0.467913 0.333196
4 1 0.519574 0.409864 0.315017
2 1 0.562385 0.441362 0.320063
5 1 0.495026 0.426885 0.324048
6 1 0.478034 0.4334 0.352425
7 1 0.485712 0.445314 0.373137
8 1 0.508244 0.454406 0.390015
22 1 0.552751 0.255144 0.412446
21 1 0.553337 0.282757 0.413463
20 1 0.561897 0.302661 0.430408
13 1 0.57397 0.454027 0.504407
12 1 0.545422 0.465396 0.48787
9 1 0.514298 0.45197 0.420187
23 1 0.542731 0.227445 0.418472
24 1 0.522306 0.212691 0.427111
19 1 0.555189 0.308802 0.459492
18 1 0.545097 0.330191 0.479313
17 1 0.560965 0.348308 0.502893
11 1 0.532169 0.456625 0.462359
10 1 0.518929 0.467319 0.438321
16 1 0.559324 0.376965 0.509282
14 1 0.579046 0.428763 0.51988
15 1 0.572235 0.403702 0.520252
ITEM: TIMESTEP
6000
ITEM: NUMBER OF ATOMS
24
ITEM: BOX BOUNDS pp pp pp
-1.3500000000000000e+01 3.6500000000000000e+01
-2.5000000000000000e+01 2.5000000000000000e+01
-2.5000000000000000e+01 2.5000000000000000e+01
ITEM: ATOMS id type xs ys zs
4 1 0.543777 0.455504 0.306154
3 1 0.562031 0.45973 0.286098
5 1 0.529094 0.472424 0.316994
6 1 0.516679 0.468953 0.342278
2 1 0.571124 0.486769 0.275874
1 1 0.593484 0.496742 0.26531
7 1 0.524413 0.469729 0.369739
8 1 0.520577 0.453872 0.394808
24 1 0.494415 0.302555 0.431942
23 1 0.505902 0.291885 0.409737
22 1 0.531337 0.285936 0.406999
21 1 0.557023 0.290107 0.415459
20 1 0.571665 0.277643 0.44206
9 1 0.51312 0.451767 0.425341
19 1 0.585605 0.290765 0.465322
18 1 0.572873 0.301071 0.493515
11 1 0.52794 0.419057 0.465258
10 1 0.523188 0.445382 0.450849
17 1 0.591399 0.309603 0.508385
16 1 0.611884 0.329395 0.512172
13 1 0.569247 0.382226 0.475291
14 1 0.594967 0.376695 0.488991
12 1 0.551095 0.400207 0.458446
15 1 0.608615 0.35716 0.506595
ITEM: TIMESTEP
7000
ITEM: NUMBER OF ATOMS
24
ITEM: BOX BOUNDS pp pp pp
-1.3500000000000000e+01 3.6500000000000000e+01
-2.5000000000000000e+01 2.5000000000000000e+01
-2.5000000000000000e+01 2.5000000000000000e+01
ITEM: ATOMS id type xs ys zs
2 1 0.56369 0.488911 0.285806
1 1 0.591617 0.470308 0.267045
4 1 0.560107 0.474585 0.331356
3 1 0.548833 0.481007 0.307705
5 1 0.563657 0.455625 0.350617
6 1 0.546762 0.451961 0.372704
7 1 0.517198 0.443324 0.377725
8 1 0.504639 0.433695 0.401519
22 1 0.544134 0.296071 0.39259
23 1 0.520928 0.300208 0.392743
24 1 0.503208 0.310008 0.413727
14 1 0.616422 0.396156 0.471244
15 1 0.616242 0.376657 0.486888
21 1 0.563964 0.297739 0.410399
9 1 0.519687 0.422552 0.422587
20 1 0.565259 0.289402 0.439432
19 1 0.566836 0.304415 0.465168
13 1 0.607077 0.418089 0.469946
11 1 0.564592 0.422424 0.453453
12 1 0.585949 0.436076 0.460047
10 1 0.545344 0.430217 0.435309
18 1 0.563136 0.327096 0.473908
17 1 0.574526 0.3504 0.490529
16 1 0.598665 0.362768 0.5032
ITEM: TIMESTEP
8000
ITEM: NUMBER OF ATOMS
24
ITEM: BOX BOUNDS pp pp pp
-1.3500000000000000e+01 3.6500000000000000e+01
-2.5000000000000000e+01 2.5000000000000000e+01
-2.5000000000000000e+01 2.5000000000000000e+01
ITEM: ATOMS id type xs ys zs
4 1 0.58661 0.446829 0.352729
6 1 0.540053 0.443082 0.370307
7 1 0.537184 0.458158 0.392407
5 1 0.565005 0.437902 0.356374
3 1 0.602022 0.46186 0.334923
1 1 0.63412 0.490988 0.32104
2 1 0.62158 0.466872 0.323837
22 1 0.526616 0.29858 0.39571
15 1 0.607012 0.350211 0.492861
20 1 0.551371 0.268539 0.428088
24 1 0.532014 0.353417 0.412882
9 1 0.552958 0.438144 0.4356
8 1 0.548073 0.458504 0.416142
10 1 0.575916 0.431915 0.457302
19 1 0.552849 0.276959 0.454242
18 1 0.561775 0.30196 0.46609
11 1 0.600807 0.428985 0.460021
13 1 0.627643 0.397675 0.485326
14 1 0.628016 0.376153 0.493213
12 1 0.621457 0.411124 0.461967
17 1 0.573678 0.310293 0.488053
16 1 0.582351 0.332398 0.500138
21 1 0.542182 0.277693 0.402931
23 1 0.520011 0.32502 0.405238
ITEM: TIMESTEP
9000
ITEM: NUMBER OF ATOMS
24
ITEM: BOX BOUNDS pp pp pp
-1.3500000000000000e+01 3.6500000000000000e+01
-2.5000000000000000e+01 2.5000000000000000e+01
-2.5000000000000000e+01 2.5000000000000000e+01
ITEM: ATOMS id type xs ys zs
5 1 0.562986 0.487981 0.35062
4 1 0.564663 0.487362 0.32147
3 1 0.578388 0.471463 0.297357
1 1 0.632278 0.461093 0.292767
2 1 0.604368 0.458932 0.290227
6 1 0.579371 0.489228 0.378592
7 1 0.593314 0.467205 0.389991
20 1 0.53393 0.271705 0.436582
21 1 0.513994 0.287896 0.422078
23 1 0.483649 0.332312 0.42677
24 1 0.485609 0.344738 0.454526
9 1 0.573083 0.45849 0.433859
22 1 0.492336 0.311585 0.41286
19 1 0.55641 0.28352 0.460873
18 1 0.57084 0.304306 0.473065
12 1 0.580922 0.406267 0.480089
10 1 0.587555 0.446423 0.455961
11 1 0.591277 0.425297 0.469902
17 1 0.567635 0.310144 0.503002
16 1 0.569837 0.330765 0.518488
15 1 0.580107 0.356429 0.513809
14 1 0.574891 0.382009 0.5187
13 1 0.567534 0.399512 0.502309
8 1 0.579354 0.446922 0.407844
ITEM: TIMESTEP
10000
ITEM: NUMBER OF ATOMS
24
ITEM: BOX BOUNDS pp pp pp
-1.3500000000000000e+01 3.6500000000000000e+01
-2.5000000000000000e+01 2.5000000000000000e+01
-2.5000000000000000e+01 2.5000000000000000e+01
ITEM: ATOMS id type xs ys zs
1 1 0.570878 0.458569 0.337099
2 1 0.594471 0.469413 0.345144
3 1 0.607737 0.491234 0.326228
20 1 0.577527 0.267264 0.435319
22 1 0.529842 0.288572 0.427372
21 1 0.547155 0.27345 0.427315
9 1 0.569368 0.498527 0.412623
10 1 0.585883 0.482145 0.424706
19 1 0.596371 0.26891 0.459348
24 1 0.480886 0.294018 0.457482
23 1 0.508045 0.300609 0.443924
13 1 0.595962 0.415266 0.461222
14 1 0.606253 0.387537 0.469487
12 1 0.58731 0.431174 0.444211
11 1 0.580741 0.462482 0.444563
18 1 0.59684 0.289491 0.480826
17 1 0.580864 0.317046 0.496872
16 1 0.588636 0.341469 0.494819
15 1 0.601747 0.365645 0.490369
4 1 0.597372 0.514332 0.318526
5 1 0.579207 0.537761 0.330183
6 1 0.561061 0.541017 0.355488
7 1 0.559306 0.544007 0.382855
8 1 0.556406 0.525305 0.404726
ITEM: TIMESTEP
11000
ITEM: NUMBER OF ATOMS
24
ITEM: BOX BOUNDS pp pp pp
-1.3500000000000000e+01 3.6500000000000000e+01
-2.5000000000000000e+01 2.5000000000000000e+01
-2.5000000000000000e+01 2.5000000000000000e+01
ITEM: ATOMS id type xs ys zs
1 1 0.576436 0.464046 0.296998
2 1 0.573845 0.493646 0.290258
22 1 0.534071 0.295106 0.427552
21 1 0.558336 0.285991 0.420114
20 1 0.589641 0.292138 0.413046
19 1 0.611915 0.298585 0.424722
12 1 0.552503 0.435569 0.436467
11 1 0.556825 0.463863 0.429356
10 1 0.545357 0.488989 0.41872
24 1 0.520919 0.293051 0.479686
23 1 0.52112 0.291394 0.451188
18 1 0.62776 0.30519 0.450147
17 1 0.620321 0.330534 0.467326
15 1 0.579234 0.368565 0.468822
16 1 0.606383 0.354243 0.461896
13 1 0.557832 0.417022 0.459583
14 1 0.55835 0.389592 0.465788
4 1 0.613835 0.513472 0.307196
3 1 0.596082 0.508195 0.290987
5 1 0.612994 0.533342 0.325669
6 1 0.603045 0.530619 0.352796
8 1 0.566466 0.516324 0.379662
7 1 0.581854 0.512954 0.362633
9 1 0.554316 0.513735 0.405159
ITEM: TIMESTEP
12000
ITEM: NUMBER OF ATOMS
24
ITEM: BOX BOUNDS pp pp pp
-1.3500000000000000e+01 3.6500000000000000e+01
-2.5000000000000000e+01 2.5000000000000000e+01
-2.5000000000000000e+01 2.5000000000000000e+01
ITEM: ATOMS id type xs ys zs
1 1 0.607024 0.443389 0.272896
2 1 0.593289 0.449508 0.296913
3 1 0.589988 0.459171 0.317979
4 1 0.578322 0.483418 0.329163
24 1 0.476221 0.307456 0.393697
22 1 0.521498 0.289276 0.420216
21 1 0.547453 0.276021 0.42637
20 1 0.564245 0.283869 0.451286
19 1 0.57185 0.308625 0.457037
12 1 0.584097 0.451337 0.492779
11 1 0.584078 0.452138 0.464306
10 1 0.572083 0.454588 0.44276
8 1 0.57018 0.494023 0.417209
23 1 0.507446 0.308155 0.399954
18 1 0.588408 0.328448 0.473138
17 1 0.605142 0.338103 0.490308
15 1 0.624341 0.391024 0.477275
16 1 0.620901 0.363374 0.487609
13 1 0.59997 0.430909 0.501828
14 1 0.61598 0.416561 0.489879
9 1 0.57535 0.472959 0.426579
6 1 0.581988 0.516852 0.369502
7 1 0.581332 0.506832 0.397054
5 1 0.584801 0.506407 0.342965
ITEM: TIMESTEP
13000
ITEM: NUMBER OF ATOMS
24
ITEM: BOX BOUNDS pp pp pp
-1.3500000000000000e+01 3.6500000000000000e+01
-2.5000000000000000e+01 2.5000000000000000e+01
-2.5000000000000000e+01 2.5000000000000000e+01
ITEM: ATOMS id type xs ys zs
1 1 0.582618 0.418012 0.298607
2 1 0.610018 0.418883 0.29545
3 1 0.627185 0.441125 0.297441
4 1 0.624852 0.466997 0.313304
24 1 0.547183 0.277976 0.350304
5 1 0.60937 0.467464 0.333709
23 1 0.560552 0.286714 0.369655
22 1 0.564579 0.308526 0.393373
6 1 0.610932 0.480371 0.360793
14 1 0.614243 0.435462 0.48606
17 1 0.613099 0.358977 0.496943
13 1 0.591894 0.448877 0.477647
12 1 0.586801 0.469109 0.459668
20 1 0.581467 0.34762 0.427676
19 1 0.602612 0.341838 0.448488
18 1 0.613183 0.343431 0.475361
15 1 0.62193 0.407511 0.490272
16 1 0.621363 0.385376 0.500262
11 1 0.578117 0.499548 0.461938
21 1 0.576107 0.336694 0.400679
7 1 0.607156 0.50562 0.377787
8 1 0.609797 0.515099 0.401816
9 1 0.591027 0.526044 0.419162
10 1 0.584614 0.522631 0.445118
ITEM: TIMESTEP
14000
ITEM: NUMBER OF ATOMS
24
ITEM: BOX BOUNDS pp pp pp
-1.3500000000000000e+01 3.6500000000000000e+01
-2.5000000000000000e+01 2.5000000000000000e+01
-2.5000000000000000e+01 2.5000000000000000e+01
ITEM: ATOMS id type xs ys zs
1 1 0.558125 0.463959 0.305431
2 1 0.575541 0.442031 0.295881
3 1 0.604418 0.444795 0.301277
4 1 0.618211 0.452823 0.32255
24 1 0.564396 0.374383 0.346081
5 1 0.614626 0.471355 0.342946
23 1 0.55708 0.369575 0.37524
6 1 0.621546 0.483256 0.368004
14 1 0.576534 0.464072 0.542793
20 1 0.580508 0.35508 0.453893
19 1 0.590039 0.376292 0.471148
18 1 0.589076 0.394057 0.493447
13 1 0.591716 0.479754 0.523659
21 1 0.573326 0.350184 0.426946
17 1 0.597476 0.398426 0.524723
16 1 0.586602 0.41838 0.538647
15 1 0.573927 0.435211 0.544249
10 1 0.583408 0.493758 0.451586
11 1 0.595642 0.47977 0.46745
12 1 0.600822 0.482 0.498198
22 1 0.562656 0.367804 0.404343
7 1 0.617362 0.504995 0.385771
9 1 0.604494 0.504872 0.434773
8 1 0.622516 0.502181 0.412428
ITEM: TIMESTEP
15000
ITEM: NUMBER OF ATOMS
24
ITEM: BOX BOUNDS pp pp pp
-1.3500000000000000e+01 3.6500000000000000e+01
-2.5000000000000000e+01 2.5000000000000000e+01
-2.5000000000000000e+01 2.5000000000000000e+01
ITEM: ATOMS id type xs ys zs
2 1 0.582385 0.486873 0.277069
3 1 0.585884 0.470914 0.298647
6 1 0.634179 0.46811 0.355275
24 1 0.598379 0.380424 0.387312
4 1 0.60746 0.473284 0.311892
5 1 0.615195 0.475075 0.335943
1 1 0.589775 0.493485 0.253767
7 1 0.638953 0.474818 0.383133
21 1 0.569635 0.337409 0.460092
22 1 0.573803 0.342785 0.426839
20 1 0.565321 0.351268 0.482767
19 1 0.557768 0.376035 0.493375
15 1 0.570198 0.441155 0.523747
13 1 0.57613 0.489352 0.505815
18 1 0.567109 0.384253 0.51994
14 1 0.563792 0.465122 0.509003
17 1 0.579241 0.401021 0.539407
16 1 0.564387 0.422644 0.542132
8 1 0.642208 0.492169 0.409549
23 1 0.590199 0.358561 0.404404
11 1 0.600236 0.496845 0.464562
9 1 0.645559 0.490706 0.434845
10 1 0.630194 0.50462 0.452118
12 1 0.596747 0.502304 0.487841
ITEM: TIMESTEP
16000
ITEM: NUMBER OF ATOMS
24
ITEM: BOX BOUNDS pp pp pp
-1.3500000000000000e+01 3.6500000000000000e+01
-2.5000000000000000e+01 2.5000000000000000e+01
-2.5000000000000000e+01 2.5000000000000000e+01
ITEM: ATOMS id type xs ys zs
3 1 0.616751 0.470721 0.289818
2 1 0.629909 0.476205 0.270052
24 1 0.558155 0.350399 0.384419
4 1 0.615738 0.477467 0.316185
5 1 0.623858 0.491222 0.336241
6 1 0.624353 0.482617 0.362616
7 1 0.626924 0.49814 0.386118
1 1 0.626254 0.491752 0.251849
22 1 0.579203 0.3286 0.430484
23 1 0.576359 0.333993 0.40491
16 1 0.552197 0.447723 0.517179
17 1 0.559104 0.41832 0.512656
21 1 0.568949 0.340987 0.453963
15 1 0.547077 0.465868 0.498605
20 1 0.546754 0.348824 0.466864
19 1 0.541334 0.368698 0.489775
13 1 0.584441 0.484984 0.479062
14 1 0.559237 0.481188 0.480787
18 1 0.547623 0.398231 0.494363
8 1 0.634391 0.52524 0.392536
11 1 0.627588 0.509684 0.455622
10 1 0.641715 0.525451 0.439499
9 1 0.637151 0.540702 0.415911
12 1 0.603034 0.505808 0.475698
ITEM: TIMESTEP
17000
ITEM: NUMBER OF ATOMS
24
ITEM: BOX BOUNDS pp pp pp
-1.3500000000000000e+01 3.6500000000000000e+01
-2.5000000000000000e+01 2.5000000000000000e+01
-2.5000000000000000e+01 2.5000000000000000e+01
ITEM: ATOMS id type xs ys zs
2 1 0.633747 0.454135 0.280696
1 1 0.661671 0.46928 0.274291
4 1 0.604964 0.474555 0.324294
3 1 0.610833 0.466694 0.298574
5 1 0.591034 0.496485 0.331237
24 1 0.517894 0.302451 0.362848
23 1 0.513257 0.317768 0.387626
14 1 0.589139 0.474411 0.474894
22 1 0.512612 0.315654 0.418784
21 1 0.519385 0.325693 0.444509
20 1 0.530294 0.344859 0.462224
15 1 0.572273 0.44534 0.467266
19 1 0.527375 0.359447 0.480306
17 1 0.538673 0.408336 0.4673
18 1 0.524355 0.388901 0.481983
16 1 0.556846 0.423541 0.473403
8 1 0.565594 0.545845 0.36646
7 1 0.585112 0.543407 0.346362
6 1 0.596438 0.526025 0.33265
9 1 0.556704 0.561419 0.385483
10 1 0.563271 0.55419 0.4085
12 1 0.576597 0.522768 0.451823
11 1 0.561996 0.531932 0.432203
13 1 0.588151 0.50399 0.470684
ITEM: TIMESTEP
18000
ITEM: NUMBER OF ATOMS
24
ITEM: BOX BOUNDS pp pp pp
-1.3500000000000000e+01 3.6500000000000000e+01
-2.5000000000000000e+01 2.5000000000000000e+01
-2.5000000000000000e+01 2.5000000000000000e+01
ITEM: ATOMS id type xs ys zs
1 1 0.654727 0.420262 0.307556
2 1 0.648003 0.443752 0.322299
3 1 0.63418 0.463216 0.31612
24 1 0.510727 0.266906 0.387046
22 1 0.537648 0.317919 0.391995
23 1 0.51596 0.297426 0.387611
4 1 0.628606 0.487335 0.322402
18 1 0.580747 0.3963 0.435781
21 1 0.55062 0.328936 0.414794
20 1 0.559498 0.353675 0.426796
17 1 0.570043 0.420223 0.433935
16 1 0.562408 0.447221 0.451206
15 1 0.544708 0.461761 0.459005
14 1 0.535902 0.486824 0.473588
19 1 0.575219 0.370807 0.437198
6 1 0.605153 0.504207 0.364166
7 1 0.603464 0.512339 0.391402
5 1 0.611833 0.508503 0.338737
11 1 0.564765 0.553616 0.465727
10 1 0.577324 0.553032 0.442872
12 1 0.55158 0.536332 0.4795
13 1 0.541908 0.515009 0.486207
9 1 0.599411 0.547346 0.428799
8 1 0.609103 0.538116 0.405077
ITEM: TIMESTEP
19000
ITEM: NUMBER OF ATOMS
24
ITEM: BOX BOUNDS pp pp pp
-1.3500000000000000e+01 3.6500000000000000e+01
-2.5000000000000000e+01 2.5000000000000000e+01
-2.5000000000000000e+01 2.5000000000000000e+01
ITEM: ATOMS id type xs ys zs
1 1 0.646042 0.412535 0.355279
3 1 0.617647 0.454963 0.341872
2 1 0.633393 0.433041 0.336375
4 1 0.632613 0.480997 0.340115
17 1 0.532783 0.417317 0.398209
18 1 0.544651 0.388802 0.392929
24 1 0.519428 0.274032 0.42472
23 1 0.536661 0.284634 0.409906
21 1 0.545013 0.334291 0.421449
22 1 0.548624 0.312605 0.411628
20 1 0.563334 0.353667 0.422562
19 1 0.565286 0.374097 0.405165
16 1 0.530298 0.434761 0.422916
14 1 0.554904 0.45184 0.475045
15 1 0.550888 0.441139 0.447224
12 1 0.580444 0.495765 0.479535
13 1 0.562257 0.476595 0.481886
5 1 0.649823 0.500185 0.351568
6 1 0.646741 0.511731 0.380658
7 1 0.639675 0.530077 0.395257
8 1 0.642653 0.532484 0.419046
10 1 0.611102 0.524082 0.458811
11 1 0.597981 0.503214 0.463238
9 1 0.632691 0.524588 0.443864
ITEM: TIMESTEP
20000
ITEM: NUMBER OF ATOMS
24
ITEM: BOX BOUNDS pp pp pp
-1.3500000000000000e+01 3.6500000000000000e+01
-2.5000000000000000e+01 2.5000000000000000e+01
-2.5000000000000000e+01 2.5000000000000000e+01
ITEM: ATOMS id type xs ys zs
1 1 0.646908 0.411411 0.335583
3 1 0.641291 0.456687 0.349853
2 1 0.657377 0.436702 0.341891
4 1 0.626538 0.476983 0.335301
21 1 0.571971 0.337946 0.388732
20 1 0.571099 0.362416 0.389249
19 1 0.581983 0.381964 0.398498
23 1 0.566403 0.301328 0.417636
24 1 0.590224 0.292531 0.426263
22 1 0.55829 0.324628 0.405406
18 1 0.583637 0.389187 0.425876
9 1 0.636968 0.495726 0.424257
17 1 0.585289 0.41202 0.44424
16 1 0.561484 0.430973 0.44516
15 1 0.547312 0.448263 0.455321
13 1 0.573105 0.491106 0.475095
14 1 0.547078 0.470533 0.47074
10 1 0.640066 0.491494 0.455695
12 1 0.598039 0.488349 0.486486
11 1 0.623726 0.49795 0.482521
6 1 0.6431 0.516809 0.350305
5 1 0.622274 0.503231 0.33771
7 1 0.660284 0.516291 0.376293
8 1 0.656769 0.503942 0.403529
ITEM: TIMESTEP
21000
ITEM: NUMBER OF ATOMS
24
ITEM: BOX BOUNDS pp pp pp
-1.3500000000000000e+01 3.6500000000000000e+01
-2.5000000000000000e+01 2.5000000000000000e+01
-2.5000000000000000e+01 2.5000000000000000e+01
ITEM: ATOMS id type xs ys zs
1 1 0.669137 0.431057 0.360645
3 1 0.612081 0.446877 0.361441
2 1 0.636553 0.430258 0.36185
4 1 0.609186 0.473441 0.373831
21 1 0.581724 0.316989 0.39399
20 1 0.593534 0.339157 0.395121
5 1 0.627003 0.496427 0.375366
23 1 0.56453 0.29854 0.437122
24 1 0.567317 0.29325 0.46832
22 1 0.569157 0.295408 0.413511
9 1 0.622581 0.485778 0.45776
11 1 0.601115 0.491253 0.501279
17 1 0.582766 0.410411 0.413421
16 1 0.565438 0.414567 0.43019
15 1 0.560097 0.432107 0.450542
13 1 0.57217 0.434444 0.503492
14 1 0.56314 0.42451 0.478346
19 1 0.596862 0.363474 0.407699
12 1 0.577035 0.463673 0.506049
8 1 0.640673 0.485528 0.43751
18 1 0.599644 0.387955 0.404688
10 1 0.617143 0.498224 0.479407
6 1 0.638173 0.50945 0.397326
7 1 0.652925 0.505212 0.417498
ITEM: TIMESTEP
22000
ITEM: NUMBER OF ATOMS
24
ITEM: BOX BOUNDS pp pp pp
-1.3500000000000000e+01 3.6500000000000000e+01
-2.5000000000000000e+01 2.5000000000000000e+01
-2.5000000000000000e+01 2.5000000000000000e+01
ITEM: ATOMS id type xs ys zs
21 1 0.569555 0.286366 0.392706
4 1 0.605801 0.494661 0.36678
3 1 0.602929 0.473812 0.356776
2 1 0.61635 0.454789 0.36373
1 1 0.61067 0.435811 0.380109
23 1 0.528106 0.293143 0.426615
22 1 0.540286 0.285787 0.404206
19 1 0.582209 0.324135 0.421031
16 1 0.543476 0.379541 0.455729
17 1 0.546912 0.357172 0.435412
18 1 0.559095 0.331645 0.436921
12 1 0.628807 0.428555 0.513501
24 1 0.50249 0.301318 0.433916
15 1 0.553172 0.399857 0.478522
14 1 0.575952 0.409255 0.492324
9 1 0.655519 0.494875 0.474245
10 1 0.638368 0.46648 0.480435
13 1 0.604669 0.413033 0.507868
11 1 0.643561 0.452331 0.507364
20 1 0.588249 0.306281 0.403314
5 1 0.60877 0.506791 0.395349
6 1 0.631018 0.511982 0.413526
7 1 0.637253 0.519558 0.435236
8 1 0.650201 0.517479 0.456172
ITEM: TIMESTEP
23000
ITEM: NUMBER OF ATOMS
24
ITEM: BOX BOUNDS pp pp pp
-1.3500000000000000e+01 3.6500000000000000e+01
-2.5000000000000000e+01 2.5000000000000000e+01
-2.5000000000000000e+01 2.5000000000000000e+01
ITEM: ATOMS id type xs ys zs
21 1 0.581351 0.352409 0.391568
22 1 0.588745 0.326317 0.375234
1 1 0.546679 0.488733 0.382243
2 1 0.569313 0.475101 0.397742
23 1 0.580222 0.308637 0.352001
24 1 0.587987 0.301402 0.322722
8 1 0.657042 0.490859 0.481892
11 1 0.670282 0.440341 0.542437
10 1 0.669091 0.460698 0.526497
12 1 0.660783 0.412713 0.534209
18 1 0.586066 0.40871 0.441441
19 1 0.579289 0.391294 0.416862
17 1 0.579487 0.410077 0.469826
16 1 0.566423 0.404 0.49733
15 1 0.576301 0.399462 0.522024
9 1 0.665659 0.471111 0.503092
14 1 0.603826 0.404177 0.52376
13 1 0.63388 0.404147 0.534744
3 1 0.589264 0.490699 0.412635
4 1 0.613282 0.493096 0.424509
20 1 0.588393 0.369038 0.412877
6 1 0.658711 0.518906 0.433507
7 1 0.6664 0.510238 0.460202
5 1 0.628768 0.517317 0.42597
ITEM: TIMESTEP
24000
ITEM: NUMBER OF ATOMS
24
ITEM: BOX BOUNDS pp pp pp
-1.3500000000000000e+01 3.6500000000000000e+01
-2.5000000000000000e+01 2.5000000000000000e+01
-2.5000000000000000e+01 2.5000000000000000e+01
ITEM: ATOMS id type xs ys zs
24 1 0.567222 0.30438 0.354226
23 1 0.563007 0.327467 0.366488
22 1 0.552204 0.321066 0.39151
2 1 0.61463 0.48959 0.392817
1 1 0.623412 0.46195 0.383453
10 1 0.691411 0.457615 0.518098
19 1 0.576501 0.345978 0.451543
11 1 0.666532 0.455617 0.522563
20 1 0.579689 0.328897 0.434819
18 1 0.582867 0.373244 0.471158
17 1 0.571049 0.397069 0.469978
16 1 0.57266 0.418326 0.48626
21 1 0.560268 0.319224 0.420994
9 1 0.709015 0.479735 0.512967
15 1 0.570152 0.42057 0.509904
14 1 0.595716 0.428026 0.531316
13 1 0.620205 0.44032 0.537387
12 1 0.64386 0.440807 0.521995
7 1 0.692913 0.512478 0.467447
4 1 0.628986 0.522171 0.432655
5 1 0.647385 0.519755 0.454971
6 1 0.671842 0.504664 0.460993
3 1 0.616199 0.507083 0.411554
8 1 0.703763 0.502484 0.491886
ITEM: TIMESTEP
25000
ITEM: NUMBER OF ATOMS
24
ITEM: BOX BOUNDS pp pp pp
-1.3500000000000000e+01 3.6500000000000000e+01
-2.5000000000000000e+01 2.5000000000000000e+01
-2.5000000000000000e+01 2.5000000000000000e+01
ITEM: ATOMS id type xs ys zs
21 1 0.57158 0.28609 0.468197
20 1 0.56447 0.310933 0.477023
19 1 0.571649 0.3319 0.490207
18 1 0.566475 0.360325 0.487282
17 1 0.562101 0.383982 0.501895
16 1 0.576764 0.401411 0.516458
15 1 0.573596 0.425464 0.508735
10 1 0.663564 0.476526 0.532332
9 1 0.684855 0.492939 0.522092
14 1 0.581015 0.449389 0.524867
13 1 0.593553 0.465931 0.547216
12 1 0.615224 0.479945 0.55005
11 1 0.63501 0.48989 0.538438
22 1 0.55972 0.270318 0.454729
3 1 0.64987 0.457617 0.414386
1 1 0.624755 0.418775 0.43011
23 1 0.562812 0.247147 0.438954
4 1 0.671968 0.458428 0.433905
24 1 0.586141 0.233266 0.428057
5 1 0.665441 0.469217 0.45596
2 1 0.627855 0.445561 0.419414
6 1 0.668174 0.497092 0.463828
8 1 0.685435 0.510922 0.507953
7 1 0.684856 0.509043 0.485127
ITEM: TIMESTEP
26000
ITEM: NUMBER OF ATOMS
24
ITEM: BOX BOUNDS pp pp pp
-1.3500000000000000e+01 3.6500000000000000e+01
-2.5000000000000000e+01 2.5000000000000000e+01
-2.5000000000000000e+01 2.5000000000000000e+01
ITEM: ATOMS id type xs ys zs
23 1 0.566493 0.236729 0.468265
24 1 0.539449 0.241824 0.465899
1 1 0.586282 0.496745 0.475511
3 1 0.600027 0.45967 0.4413
2 1 0.591934 0.471006 0.462795
4 1 0.611152 0.467704 0.414863
21 1 0.606258 0.278669 0.486918
22 1 0.591454 0.257325 0.471478
20 1 0.606454 0.302767 0.483579
5 1 0.63376 0.489206 0.411519
10 1 0.650067 0.488577 0.511031
19 1 0.587207 0.327276 0.49125
18 1 0.567176 0.334924 0.508543
17 1 0.55885 0.355361 0.528388
16 1 0.580308 0.365529 0.545568
15 1 0.582591 0.392293 0.554991
14 1 0.597401 0.416781 0.556082
13 1 0.620881 0.431807 0.554177
12 1 0.642624 0.433645 0.536647
11 1 0.65833 0.459482 0.522723
7 1 0.668657 0.493897 0.447969
9 1 0.668648 0.504124 0.499224
8 1 0.671131 0.510408 0.471592
6 1 0.654655 0.502085 0.428397
ITEM: TIMESTEP
27000
ITEM: NUMBER OF ATOMS
24
ITEM: BOX BOUNDS pp pp pp
-1.3500000000000000e+01 3.6500000000000000e+01
-2.5000000000000000e+01 2.5000000000000000e+01
-2.5000000000000000e+01 2.5000000000000000e+01
ITEM: ATOMS id type xs ys zs
4 1 0.62784 0.481725 0.426045
5 1 0.646301 0.499705 0.421445
23 1 0.577087 0.296637 0.497448
24 1 0.580831 0.272467 0.512089
22 1 0.563616 0.308537 0.475969
3 1 0.610168 0.462676 0.439412
12 1 0.6228 0.445843 0.509973
2 1 0.585228 0.446889 0.435078
11 1 0.637905 0.467726 0.518649
21 1 0.566041 0.330752 0.465228
20 1 0.56185 0.362446 0.466335
18 1 0.536261 0.39131 0.503998
19 1 0.54873 0.386917 0.478231
10 1 0.651046 0.489446 0.506489
17 1 0.548999 0.381704 0.529325
16 1 0.554715 0.391949 0.553003
15 1 0.576517 0.406943 0.56129
14 1 0.58565 0.42962 0.546948
13 1 0.598377 0.435434 0.522765
1 1 0.57179 0.430395 0.443917
6 1 0.650781 0.521873 0.42613
7 1 0.663018 0.534441 0.450168
8 1 0.65012 0.530081 0.472875
9 1 0.648471 0.518907 0.495323
ITEM: TIMESTEP
28000
ITEM: NUMBER OF ATOMS
24
ITEM: BOX BOUNDS pp pp pp
-1.3500000000000000e+01 3.6500000000000000e+01
-2.5000000000000000e+01 2.5000000000000000e+01
-2.5000000000000000e+01 2.5000000000000000e+01
ITEM: ATOMS id type xs ys zs
1 1 0.60871 0.461422 0.380325
2 1 0.620699 0.483938 0.389318
20 1 0.575752 0.333352 0.413681
21 1 0.586706 0.315914 0.428139
19 1 0.565384 0.358048 0.419042
18 1 0.571482 0.38122 0.439744
3 1 0.625232 0.491204 0.419174
22 1 0.58778 0.301787 0.452295
23 1 0.600871 0.279064 0.467753
17 1 0.567076 0.384267 0.47121
24 1 0.607163 0.259212 0.488657
15 1 0.571841 0.407688 0.518819
16 1 0.561507 0.397193 0.493048
11 1 0.630781 0.460359 0.503931
10 1 0.646399 0.475458 0.486086
9 1 0.674288 0.484877 0.487165
14 1 0.590437 0.420195 0.530987
13 1 0.597728 0.448018 0.535771
12 1 0.60729 0.465655 0.520101
4 1 0.618674 0.508872 0.438168
5 1 0.625055 0.537413 0.452175
6 1 0.645853 0.544001 0.472048
8 1 0.690667 0.509967 0.48111
7 1 0.671489 0.529141 0.484753
ITEM: TIMESTEP
29000
ITEM: NUMBER OF ATOMS
24
ITEM: BOX BOUNDS pp pp pp
-1.3500000000000000e+01 3.6500000000000000e+01
-2.5000000000000000e+01 2.5000000000000000e+01
-2.5000000000000000e+01 2.5000000000000000e+01