LAMMPS data file via write_data, version 29 Aug 2024, timestep = 5000000, units = lj

24 atoms
1 atom types
23 bonds
1 bond types
22 angles
1 angle types
21 dihedrals
1 dihedral types

-13.5 36.5 xlo xhi
-25 25 ylo yhi
-25 25 zlo zhi

Masses

1 1

Bond Coeffs # harmonic

1 30 1.4

Angle Coeffs # harmonic

1 10 140

Atoms # full

3 1 1 -2 -13.167523251403555 16.986379791643046 -21.334830300433456 1 0 1
2 1 1 -2 -12.77152286622145 15.888766304106534 -20.790599376652107 1 0 1
1 1 1 -2 -13.065256582776515 15.512179617117688 -19.489710592900668 1 0 1
4 1 1 -2 -13.298428007075518 18.16015388382494 -20.625435426009677 1 0 1
5 1 1 -2 -12.907859927554568 18.766006879210934 -19.247877189267147 1 0 1
6 1 1 -2 -13.308980461377926 19.982535482064748 -18.59646908183905 1 0 1
7 1 1 -2 -13.243399277049933 21.38544773016916 -18.990241331684214 1 0 1
8 1 1 -2 -11.890300772021739 21.84583796590005 -18.920228064520487 1 0 1
9 1 1 -2 -11.142933422057233 21.706029411148524 -17.96899178162042 1 0 1
11 1 1 -2 -11.965778228408626 20.746656647765544 -15.870827310766764 1 0 1
12 1 1 -2 -13.386524435168806 20.73361885745391 -15.475612652599727 1 0 1
10 1 1 -2 -10.940288056989854 21.03144142260942 -16.95561417708645 1 0 1
23 1 1 -2 25.673611608542792 16.62201898744955 -13.695456649831037 0 0 1
22 1 1 -2 26.40287498592285 17.7923142878675 -13.497583107784786 0 0 1
21 1 1 -2 27.557998670838426 18.422911042337155 -13.903071593450974 0 0 1
20 1 1 -2 28.11820187644551 19.43017745044096 -13.243933512457689 0 0 1
19 1 1 -2 29.208708660475818 20.393390192579517 -13.195827283222393 0 0 1
18 1 1 -2 29.593310870245123 21.906868295045985 -13.06463355885418 0 0 1
17 1 1 -2 30.606558217510123 22.69799205139862 -13.442337387221789 0 0 1
16 1 1 -2 32.010610052815515 22.74349759917786 -13.253796247598894 0 0 1
15 1 1 -2 33.26323897947251 22.203693342164296 -14.075128785691286 0 0 1
14 1 1 -2 34.70213091050845 21.888443193075005 -14.01186001281806 0 0 1
13 1 1 -2 35.594673954637614 21.773233889362807 -14.991476981288233 0 0 1
24 1 1 -2 25.88634703076822 15.032072492009881 -12.693976933226455 0 0 1

Velocities

3 -0.3484337306869537 -1.4896233358576687 -0.14763049342237344
2 -1.8822261780541085 0.3825367104704039 -0.9219697703602033
1 -0.255120521480073 -0.4700341388549983 -0.6622867827545841
4 -1.3237039968337405 1.341603887986227 0.2700193582406191
5 -0.45186705954076656 -0.9570567956521246 0.7680163279913012
6 -0.5013172035916512 0.6352777216792456 -0.2792564463382803
7 0.5750925288284775 -1.6239376954729452 -0.14586866013632951
8 -0.3739669553924389 -1.6644545698560416 0.11866905641679809
9 0.19822865051127225 1.013094542682764 -0.24613535871198622
11 -0.37294133811692987 0.9573007574065945 0.8310525842310863
12 0.21753370837582722 1.8915557895046238 0.7931523643793784
10 0.20495472303853918 -1.2868806800575445 -1.3762946663448503
23 2.5683037241496725 -2.138712604181918 1.0907504804031753
22 -0.7182716696701309 -0.06784684980989081 -0.5036357454243958
21 -2.1582578481343653 0.9780766558233227 0.9347338009828926
20 0.011632763385634515 -0.5366581257617811 -0.3670979488377218
19 -0.26169759451102914 -0.11574783687180998 0.7915732887097349
18 0.5141521612978519 -0.18503746369072668 0.12434173155376946
17 0.20511463542699995 1.8470591761892519 0.23540773378460433
16 1.4457857124324125 -2.434360405018484 0.8798712583599861
15 1.478914189272223 1.2377999501479948 -0.488467989236561
14 -0.30826903149316104 1.0397511204289636 -2.320471350896182
13 -1.282734390497873 -1.5055248781770687 2.2988434483013664
24 -1.1354360946749296 -1.8310306067858235 0.1786866491354212

Bonds

1 1 3 4
2 1 2 3
3 1 1 2
4 1 4 5
5 1 5 6
6 1 6 7
7 1 7 8
8 1 8 9
9 1 9 10
10 1 11 12
11 1 12 13
12 1 10 11
13 1 23 24
14 1 22 23
15 1 21 22
16 1 20 21
17 1 19 20
18 1 18 19
19 1 17 18
20 1 16 17
21 1 15 16
22 1 14 15
23 1 13 14

Angles

1 1 2 3 4
2 1 1 2 3
3 1 3 4 5
4 1 4 5 6
5 1 5 6 7
6 1 6 7 8
7 1 7 8 9
8 1 8 9 10
9 1 10 11 12
10 1 11 12 13
11 1 9 10 11
12 1 22 23 24
13 1 21 22 23
14 1 20 21 22
15 1 19 20 21
16 1 18 19 20
17 1 17 18 19
18 1 16 17 18
19 1 15 16 17
20 1 14 15 16
21 1 13 14 15
22 1 12 13 14

Dihedrals

1 1 2 3 4 5
2 1 1 2 3 4
3 1 3 4 5 6
4 1 4 5 6 7
5 1 5 6 7 8
6 1 6 7 8 9
7 1 7 8 9 10
8 1 8 9 10 11
9 1 10 11 12 13
10 1 11 12 13 14
11 1 9 10 11 12
12 1 21 22 23 24
13 1 20 21 22 23
14 1 19 20 21 22
15 1 18 19 20 21
16 1 17 18 19 20
17 1 16 17 18 19
18 1 15 16 17 18
19 1 14 15 16 17
20 1 13 14 15 16
21 1 12 13 14 15
