LAMMPS data file via write_data, version 29 Aug 2024, timestep = 50002, units = lj

24 atoms
1 atom types
23 bonds
1 bond types
22 angles
1 angle types
21 dihedrals
1 dihedral types

-13.5 36.5 xlo xhi
-25 25 ylo yhi
-25 25 zlo zhi

Masses

1 1

Bond Coeffs # harmonic

1 30 1.4

Angle Coeffs # harmonic

1 18 140

Dihedral Coeffs # multi/harmonic

1 2 2 2 2 2

Atoms # full

4 1 1 -2 5.962096670992167 -3.404812609937777 -14.845658191237755 0 0 0
2 1 1 -2 7.32944583394711 -3.173388520556951 -17.144451609751982 0 0 0
3 1 1 -2 6.848476085145355 -3.6817071995714286 -15.731381312496415 0 0 0
5 1 1 -2 5.74374590548723 -3.340208343500885 -13.72113739395224 0 0 0
1 1 1 -2 8.464670422442179 -3.0568037186507753 -17.910884669153695 0 0 0
6 1 1 -2 5.284472180421344 -2.5268868497659973 -12.592760238856686 0 0 0
8 1 1 -2 3.9460902575767154 -2.515198801810491 -10.332148747452207 0 0 0
7 1 1 -2 4.637845415006843 -2.8521846738387104 -11.486592864709548 0 0 0
10 1 1 -2 2.0520592592209326 -3.7878344062188365 -9.009310054086455 0 0 0
12 1 1 -2 0.7888245018801567 -3.7835445892349324 -7.046837144151873 0 0 0
11 1 1 -2 0.99681154908857 -3.4033928663451634 -8.221699378551824 0 0 0
9 1 1 -2 2.8188929507836504 -3.1430456453669633 -9.801056559955574 0 0 0
14 1 1 -2 -0.4210026175004854 -5.017886886086928 -4.8065845857258065 0 0 0
13 1 1 -2 0.24156668775369958 -4.84250951142364 -5.982822018387026 0 0 0
15 1 1 -2 -0.41725031924701816 -5.752589285441755 -3.6715858072400507 0 0 0
16 1 1 -2 -0.11600219367204985 -5.670068268305526 -2.344107326576248 0 0 0
17 1 1 -2 -0.7150261568984936 -5.2624049315088035 -0.7506293384522746 0 0 0
18 1 1 -2 -1.208243181110553 -6.123492901792896 0.20734318558088635 0 0 0
19 1 1 -2 -1.521217480859372 -6.054724838531493 1.5561411506698493 0 0 0
22 1 1 -2 -0.9177200625218536 -5.876218541223268 4.9974586868689155 0 0 0
20 1 1 -2 -1.6000298515010334 -6.806061028361127 2.8542209179435822 0 0 0
21 1 1 -2 -1.7437244711690585 -6.080047183547833 4.205509347754797 0 0 0
23 1 1 -2 -0.6036083684167244 -6.21322683069906 6.4001639563655415 0 0 0
24 1 1 -2 0.4187624032363539 -6.341708612221559 7.7182092709307595 0 0 0

Velocities

4 0.9602898622438518 -1.0449303360403381 -0.29443302880856953
2 1.226445626781148 -0.7854312000525294 0.006194505477632922
3 0.7078947920873112 0.17766568294884388 0.7169981775187095
5 -0.010102027426653483 -1.3469530145712587 2.0681927261371964
1 -0.416998374815513 2.049227628751434 2.1656235056155793
6 0.41466794359313985 -0.21347223850843144 -0.8921099153313677
8 -0.7700656896162567 -1.2789976871856208 -0.2667466326250151
7 1.2664170213584576 -0.616087836895121 0.13086293350463202
10 -0.6290044783012203 0.31206245217349504 1.0531383709740656
12 -0.5982008146381024 0.19621086934382512 -0.2272651085951231
11 -0.6643354138292589 -0.8248711621603281 -2.693680288740994
9 -1.0326040172054243 -0.735397162232767 -0.9057121025053908
14 0.08884223755404747 0.1884167828583252 -0.3938350980733343
13 -0.6786993742360667 0.39285230346834926 1.9934199172309561
15 -1.80950769914633 -1.3426038449274122 -0.09987118521105094
16 -0.9194327384961317 -1.1642951869869602 -0.16424275469278354
17 -0.43494541941994497 -0.08089225839082057 -1.7344336682893067
18 0.455748284105211 -0.32509823630414064 -1.2872094315388907
19 -1.4164020447448997 -0.9751903978887034 -0.8722271700192243
22 -1.5597701926271297 -0.22510322787953635 -1.5472630131292067
20 -0.7726261672844605 0.8247691168289527 0.412327375272732
21 0.27297162259825414 -0.6299089757144539 0.5780743104373838
23 -2.058739216144776 0.6972837718817234 0.37988952600326537
24 -0.3691358358257347 -0.37480799991004754 -0.3496451467880159

Bonds

1 1 4 5
2 1 2 3
3 1 3 4
4 1 5 6
5 1 1 2
6 1 6 7
7 1 8 9
8 1 7 8
9 1 10 11
10 1 12 13
11 1 11 12
12 1 9 10
13 1 14 15
14 1 13 14
15 1 15 16
16 1 16 17
17 1 17 18
18 1 18 19
19 1 19 20
20 1 22 23
21 1 20 21
22 1 21 22
23 1 23 24

Angles

1 1 3 4 5
2 1 1 2 3
3 1 2 3 4
4 1 4 5 6
5 1 5 6 7
6 1 7 8 9
7 1 6 7 8
8 1 9 10 11
9 1 11 12 13
10 1 10 11 12
11 1 8 9 10
12 1 13 14 15
13 1 12 13 14
14 1 14 15 16
15 1 15 16 17
16 1 16 17 18
17 1 17 18 19
18 1 18 19 20
19 1 21 22 23
20 1 19 20 21
21 1 20 21 22
22 1 22 23 24

Dihedrals

1 1 3 4 5 6
2 1 1 2 3 4
3 1 2 3 4 5
4 1 4 5 6 7
5 1 5 6 7 8
6 1 7 8 9 10
7 1 6 7 8 9
8 1 9 10 11 12
9 1 11 12 13 14
10 1 10 11 12 13
11 1 8 9 10 11
12 1 13 14 15 16
13 1 12 13 14 15
14 1 14 15 16 17
15 1 15 16 17 18
16 1 16 17 18 19
17 1 17 18 19 20
18 1 18 19 20 21
19 1 21 22 23 24
20 1 19 20 21 22
21 1 20 21 22 23
