LAMMPS data file via write_data, version 29 Aug 2024, units = lj

24 atoms
1 atom types
23 bonds
1 bond types
22 angles
1 angle types
21 dihedrals
1 dihedral types

-13.5 36.5 xlo xhi
-25 25 ylo yhi
-25 25 zlo zhi

Masses

1 1

Atoms # full

1 1 1 -2 10.336910735005356 -2.158891419118023 -15.515506869234022 0 0 0
3 1 1 -2 9.429520587524724 -1.160165579836923 -13.255901277416855 0 0 0
2 1 1 -2 10.028668788546542 -1.2225103248025195 -14.52205737424922 0 0 0
4 1 1 -2 9.684952507074035 -0.6767281014386871 -11.9620704089427 0 0 0
6 1 1 -2 10.541018082614912 -1.1123961479786617 -9.496156377094945 0 0 0
7 1 1 -2 10.476200548452944 -0.8052481679763585 -8.123791386669916 0 0 0
8 1 1 -2 10.833327989817965 -1.3370461508360025 -6.868709182684343 0 0 0
9 1 1 -2 10.271632996992167 -1.6404326336676276 -5.608771304358455 0 0 0
5 1 1 -2 9.709778906922844 -1.1309365139512424 -10.63197614352249 0 0 0
24 1 1 -2 15.494489727937856 -15.538960532022088 -6.011526331810929 0 0 0
23 1 1 -2 15.514770876045983 -15.111250012081841 -4.681913157104715 0 0 0
21 1 1 -2 15.50911572355494 -13.090722774694784 -3.000637910877552 0 0 0
20 1 1 -2 15.501725299165265 -11.704976391142306 -2.8111528974298654 0 0 0
22 1 1 -2 15.989029891208641 -14.046013719317536 -3.9057342299171234 0 0 0
13 1 1 -2 9.447740841617465 -5.70866280295685 -2.4404345042888758 0 0 0
14 1 1 -2 10.153854796366415 -6.892922489554551 -2.1673648075962983 0 0 0
12 1 1 -2 9.303268853892867 -4.814819448668592 -3.5153576505534962 0 0 0
17 1 1 -2 13.17351937633435 -9.022594131404722 -1.1661797146058341 0 0 0
15 1 1 -2 11.046728372597622 -7.453026100412286 -1.2401702025432426 0 0 0
16 1 1 -2 12.391120727807095 -7.856981438140461 -1.1948612755364743 0 0 0
19 1 1 -2 14.585923658106424 -10.653180839059432 -2.6801993166961897 0 0 0
18 1 1 -2 14.272146480511886 -9.568420611564298 -1.8497552030439264 0 0 0
11 1 1 -2 9.480613101542154 -3.456677846057255 -3.8154935150697145 0 0 0
10 1 1 -2 10.30838021773663 -2.6528336902765313 -4.627330130270868 0 0 0

Bonds

1 1 1 2
2 1 3 4
3 1 2 3
4 1 4 5
5 1 6 7
6 1 7 8
7 1 8 9
8 1 9 10
9 1 5 6
10 1 23 24
11 1 21 22
12 1 20 21
13 1 22 23
14 1 13 14
15 1 14 15
16 1 12 13
17 1 17 18
18 1 15 16
19 1 16 17
20 1 19 20
21 1 18 19
22 1 11 12
23 1 10 11

Angles

1 1 2 3 4
2 1 1 2 3
3 1 3 4 5
4 1 5 6 7
5 1 6 7 8
6 1 7 8 9
7 1 8 9 10
8 1 4 5 6
9 1 22 23 24
10 1 20 21 22
11 1 19 20 21
12 1 21 22 23
13 1 12 13 14
14 1 13 14 15
15 1 11 12 13
16 1 16 17 18
17 1 14 15 16
18 1 15 16 17
19 1 18 19 20
20 1 17 18 19
21 1 10 11 12
22 1 9 10 11

Dihedrals

1 1 2 3 4 5
2 1 1 2 3 4
3 1 3 4 5 6
4 1 5 6 7 8
5 1 6 7 8 9
6 1 7 8 9 10
7 1 8 9 10 11
8 1 4 5 6 7
9 1 20 21 22 23
10 1 19 20 21 22
11 1 21 22 23 24
12 1 12 13 14 15
13 1 13 14 15 16
14 1 11 12 13 14
15 1 16 17 18 19
16 1 14 15 16 17
17 1 15 16 17 18
18 1 18 19 20 21
19 1 17 18 19 20
20 1 10 11 12 13
21 1 9 10 11 12
