ITEM: TIMESTEP
0
ITEM: NUMBER OF ATOMS
24
ITEM: BOX BOUNDS pp pp pp
-1.3500000000000000e+01 3.6500000000000000e+01
-2.5000000000000000e+01 2.5000000000000000e+01
-2.5000000000000000e+01 2.5000000000000000e+01
ITEM: ATOMS id type xs ys zs
1 1 0.476738 0.456822 0.18969
2 1 0.470573 0.47555 0.209559
3 1 0.45859 0.476797 0.234882
4 1 0.463699 0.486465 0.260759
5 1 0.464196 0.477381 0.28736
24 1 0.57989 0.189221 0.379769
6 1 0.48082 0.477752 0.310077
7 1 0.479524 0.483895 0.337524
8 1 0.486667 0.473259 0.362626
23 1 0.580295 0.197775 0.406362
22 1 0.589781 0.21908 0.421885
21 1 0.580182 0.238186 0.439987
20 1 0.580035 0.2659 0.443777
19 1 0.561718 0.286936 0.446396
14 1 0.473077 0.362142 0.456653
13 1 0.458955 0.385827 0.451191
12 1 0.456065 0.403704 0.429693
11 1 0.459612 0.430866 0.42369
10 1 0.476168 0.446943 0.407453
9 1 0.475433 0.467191 0.387825
17 1 0.53347 0.319548 0.476676
15 1 0.490935 0.350939 0.475197
16 1 0.517822 0.34286 0.476103
18 1 0.555443 0.308632 0.463005
ITEM: TIMESTEP
2
ITEM: NUMBER OF ATOMS
24
ITEM: BOX BOUNDS pp pp pp
-1.3500000000000000e+01 3.6500000000000000e+01
-2.5000000000000000e+01 2.5000000000000000e+01
-2.5000000000000000e+01 2.5000000000000000e+01
ITEM: ATOMS id type xs ys zs
1 1 0.476751 0.456821 0.189677
2 1 0.470559 0.475553 0.209568
3 1 0.458603 0.476809 0.234885
4 1 0.463685 0.486435 0.260761
5 1 0.464219 0.477371 0.28737
24 1 0.579909 0.189188 0.379743
6 1 0.480769 0.47776 0.31009
7 1 0.479525 0.483871 0.337523
8 1 0.486628 0.473306 0.362637
23 1 0.580298 0.197779 0.406387
22 1 0.589785 0.219087 0.421883
21 1 0.580154 0.238156 0.439991
20 1 0.580056 0.265919 0.44378
19 1 0.561701 0.286919 0.446408
14 1 0.47307 0.362151 0.45661
13 1 0.458972 0.385809 0.451184
12 1 0.456077 0.403713 0.429695
11 1 0.459642 0.430887 0.423665
10 1 0.476171 0.446965 0.407451
9 1 0.475459 0.467182 0.387843
17 1 0.533439 0.319547 0.476676
15 1 0.490917 0.35094 0.475219
16 1 0.517844 0.342854 0.476082
18 1 0.555454 0.30865 0.463012
ITEM: TIMESTEP
1000
ITEM: NUMBER OF ATOMS
24
ITEM: BOX BOUNDS pp pp pp
-1.3500000000000000e+01 3.6500000000000000e+01
-2.5000000000000000e+01 2.5000000000000000e+01
-2.5000000000000000e+01 2.5000000000000000e+01
ITEM: ATOMS id type xs ys zs
1 1 0.483274 0.488734 0.18012
2 1 0.467192 0.484332 0.197488
3 1 0.448248 0.49962 0.216614
4 1 0.430339 0.495732 0.237346
5 1 0.434318 0.493887 0.261239
24 1 0.651804 0.225107 0.50231
6 1 0.426023 0.500144 0.290889
7 1 0.431204 0.487432 0.319834
8 1 0.459308 0.48223 0.335183
23 1 0.644176 0.25147 0.49565
22 1 0.620499 0.260437 0.502005
21 1 0.592088 0.258498 0.499464
20 1 0.578584 0.278346 0.506357
19 1 0.558954 0.293092 0.494425
14 1 0.520665 0.396958 0.444134
13 1 0.511081 0.420892 0.437042
12 1 0.490324 0.431691 0.425083
11 1 0.483599 0.454338 0.40323
10 1 0.469324 0.45619 0.375138
9 1 0.463001 0.477508 0.361597
17 1 0.536348 0.341536 0.494266
15 1 0.518147 0.376193 0.468406
16 1 0.532404 0.364141 0.487714
18 1 0.556006 0.318484 0.49296
ITEM: TIMESTEP
2000
ITEM: NUMBER OF ATOMS
24
ITEM: BOX BOUNDS pp pp pp
-1.3500000000000000e+01 3.6500000000000000e+01
-2.5000000000000000e+01 2.5000000000000000e+01
-2.5000000000000000e+01 2.5000000000000000e+01
ITEM: ATOMS id type xs ys zs
3 1 0.445423 0.502235 0.217143
1 1 0.458616 0.485261 0.166247
2 1 0.444182 0.486469 0.191217
4 1 0.442925 0.495699 0.248094
5 1 0.461036 0.494575 0.269691
6 1 0.46073 0.498812 0.297669
10 1 0.496128 0.428551 0.353019
7 1 0.457228 0.484051 0.321372
8 1 0.472836 0.47242 0.341617
9 1 0.477033 0.444545 0.350989
14 1 0.528431 0.396604 0.443463
13 1 0.529312 0.410739 0.4243
12 1 0.510378 0.41352 0.403023
11 1 0.502528 0.412895 0.374463
24 1 0.695313 0.223892 0.51985
21 1 0.657897 0.293122 0.541921
20 1 0.629739 0.304713 0.535648
19 1 0.617479 0.32664 0.523359
23 1 0.697785 0.253386 0.524529
22 1 0.678403 0.277839 0.524035
17 1 0.565208 0.343542 0.502705
15 1 0.540665 0.377345 0.459976
16 1 0.549545 0.366564 0.488252
18 1 0.583644 0.338855 0.519046
ITEM: TIMESTEP
3000
ITEM: NUMBER OF ATOMS
24
ITEM: BOX BOUNDS pp pp pp
-1.3500000000000000e+01 3.6500000000000000e+01
-2.5000000000000000e+01 2.5000000000000000e+01
-2.5000000000000000e+01 2.5000000000000000e+01
ITEM: ATOMS id type xs ys zs
3 1 0.420974 0.500896 0.231528
1 1 0.424419 0.499552 0.177134
2 1 0.414145 0.500322 0.20297
4 1 0.415443 0.48236 0.247688
6 1 0.442364 0.459105 0.289515
5 1 0.425611 0.472752 0.274712
10 1 0.476352 0.422326 0.376611
9 1 0.470901 0.430152 0.353725
11 1 0.502683 0.420301 0.388764
7 1 0.450393 0.459887 0.316378
8 1 0.453892 0.441213 0.335837
15 1 0.545364 0.341364 0.451752
14 1 0.526237 0.350594 0.434883
13 1 0.526966 0.37157 0.411448
12 1 0.517597 0.40422 0.410211
24 1 0.71268 0.274136 0.536508
20 1 0.628523 0.302761 0.540134
22 1 0.67284 0.307621 0.559689
23 1 0.694412 0.289002 0.558898
17 1 0.569274 0.327687 0.497962
16 1 0.556988 0.347055 0.476384
18 1 0.587325 0.323794 0.52493
19 1 0.600696 0.30805 0.5392
21 1 0.646155 0.305539 0.560628
ITEM: TIMESTEP
4000
ITEM: NUMBER OF ATOMS
24
ITEM: BOX BOUNDS pp pp pp
-1.3500000000000000e+01 3.6500000000000000e+01
-2.5000000000000000e+01 2.5000000000000000e+01
-2.5000000000000000e+01 2.5000000000000000e+01
ITEM: ATOMS id type xs ys zs
1 1 0.438303 0.530963 0.189232
2 1 0.420346 0.526695 0.210368
6 1 0.456284 0.484513 0.29962
3 1 0.420408 0.5065 0.226978
4 1 0.420108 0.499947 0.254407
5 1 0.439631 0.482357 0.269438
7 1 0.474365 0.469676 0.314415
8 1 0.467868 0.449422 0.33543
10 1 0.487175 0.42829 0.38873
9 1 0.485815 0.43859 0.361933
14 1 0.51816 0.376265 0.458617
13 1 0.52149 0.38704 0.435816
15 1 0.534586 0.362617 0.475702
11 1 0.496193 0.405736 0.402618
12 1 0.500584 0.395508 0.423883
24 1 0.685154 0.272511 0.633185
17 1 0.563991 0.334399 0.503691
16 1 0.543061 0.343771 0.489426
18 1 0.572316 0.326511 0.531084
20 1 0.600335 0.296761 0.56438
21 1 0.609875 0.282883 0.587046
23 1 0.666801 0.27938 0.611377
19 1 0.5837 0.306764 0.540146
22 1 0.640479 0.272806 0.596606
ITEM: TIMESTEP
5000
ITEM: NUMBER OF ATOMS
24
ITEM: BOX BOUNDS pp pp pp
-1.3500000000000000e+01 3.6500000000000000e+01
-2.5000000000000000e+01 2.5000000000000000e+01
-2.5000000000000000e+01 2.5000000000000000e+01
ITEM: ATOMS id type xs ys zs
1 1 0.463874 0.568961 0.210008
2 1 0.455584 0.571912 0.232675
3 1 0.459323 0.56122 0.258803
6 1 0.456928 0.496503 0.287684
4 1 0.448509 0.540857 0.270946
5 1 0.455631 0.521661 0.28959
8 1 0.459357 0.447724 0.316252
9 1 0.455807 0.424054 0.331904
7 1 0.447951 0.471411 0.30215
14 1 0.506751 0.365858 0.437431
10 1 0.461032 0.413272 0.360746
13 1 0.504584 0.384614 0.420467
11 1 0.471499 0.389402 0.376051
12 1 0.493025 0.386444 0.392842
15 1 0.520392 0.360658 0.459212
17 1 0.535092 0.332966 0.496833
16 1 0.520057 0.351175 0.482409
18 1 0.536751 0.313573 0.516975
20 1 0.579868 0.309544 0.547038
21 1 0.610945 0.304132 0.551299
19 1 0.55651 0.300483 0.524894
23 1 0.657287 0.274709 0.551858
22 1 0.634647 0.287195 0.560453
24 1 0.687252 0.273254 0.559313
ITEM: TIMESTEP
6000
ITEM: NUMBER OF ATOMS
24
ITEM: BOX BOUNDS pp pp pp
-1.3500000000000000e+01 3.6500000000000000e+01
-2.5000000000000000e+01 2.5000000000000000e+01
-2.5000000000000000e+01 2.5000000000000000e+01
ITEM: ATOMS id type xs ys zs
1 1 0.465774 0.565575 0.23182
6 1 0.45545 0.467615 0.30599
5 1 0.463926 0.493647 0.305371
7 1 0.427322 0.455575 0.312424
2 1 0.48073 0.551749 0.252954
3 1 0.472727 0.533875 0.272221
4 1 0.477347 0.506191 0.286207
8 1 0.412819 0.432139 0.323329
9 1 0.417043 0.416618 0.345029
10 1 0.425302 0.386609 0.351623
11 1 0.447879 0.366209 0.352403
14 1 0.472288 0.315396 0.409432
15 1 0.493369 0.314959 0.431032
13 1 0.476062 0.33363 0.386934
12 1 0.462908 0.357256 0.372439
19 1 0.54914 0.289616 0.523459
17 1 0.523824 0.301145 0.476121
16 1 0.502215 0.302367 0.453948
18 1 0.531975 0.303414 0.505278
21 1 0.587779 0.287158 0.55646
23 1 0.635009 0.28367 0.584646
22 1 0.609027 0.294296 0.566897
24 1 0.652689 0.262595 0.588893
20 1 0.562392 0.292462 0.549563
ITEM: TIMESTEP
7000
ITEM: NUMBER OF ATOMS
24
ITEM: BOX BOUNDS pp pp pp
-1.3500000000000000e+01 3.6500000000000000e+01
-2.5000000000000000e+01 2.5000000000000000e+01
-2.5000000000000000e+01 2.5000000000000000e+01
ITEM: ATOMS id type xs ys zs
6 1 0.422116 0.481069 0.289347
5 1 0.446219 0.493895 0.279313
3 1 0.467095 0.54107 0.25239
4 1 0.45606 0.523807 0.273895
1 1 0.466647 0.590978 0.228478
2 1 0.457966 0.562211 0.235247
11 1 0.4124 0.367936 0.356104
12 1 0.423884 0.35428 0.3811
7 1 0.415121 0.460272 0.311611
8 1 0.408831 0.436789 0.310471
9 1 0.395181 0.414809 0.33175
10 1 0.398063 0.382428 0.339245
16 1 0.476691 0.293028 0.4437
14 1 0.464566 0.326883 0.399393
15 1 0.475674 0.314597 0.420632
13 1 0.4482 0.347935 0.393427
17 1 0.491468 0.27574 0.455473
18 1 0.491205 0.259751 0.480437
19 1 0.506753 0.248903 0.509775
21 1 0.538276 0.270087 0.550133
22 1 0.54953 0.296051 0.56318
20 1 0.51123 0.26216 0.536885
23 1 0.552749 0.30358 0.589865
24 1 0.541446 0.314582 0.617012
ITEM: TIMESTEP
8000
ITEM: NUMBER OF ATOMS
24
ITEM: BOX BOUNDS pp pp pp
-1.3500000000000000e+01 3.6500000000000000e+01
-2.5000000000000000e+01 2.5000000000000000e+01
-2.5000000000000000e+01 2.5000000000000000e+01
ITEM: ATOMS id type xs ys zs
1 1 0.498492 0.570808 0.255932
6 1 0.455228 0.471294 0.276081
5 1 0.441397 0.497389 0.268125
4 1 0.450572 0.523916 0.258554
2 1 0.471657 0.56433 0.255927
3 1 0.455682 0.548794 0.264915
11 1 0.435328 0.392106 0.362814
12 1 0.444797 0.367116 0.381388
10 1 0.423453 0.401234 0.340002
7 1 0.453564 0.456669 0.29562
8 1 0.451089 0.431636 0.310675
9 1 0.439646 0.423543 0.330339
16 1 0.472415 0.291861 0.445274
17 1 0.474252 0.27417 0.471917
13 1 0.44213 0.356332 0.407546
14 1 0.446786 0.331625 0.419035
15 1 0.466336 0.318829 0.434447
18 1 0.484139 0.245341 0.480772
19 1 0.50246 0.233625 0.497706
20 1 0.503449 0.227425 0.523517
21 1 0.504261 0.246083 0.550717
22 1 0.527097 0.261133 0.562644
23 1 0.532487 0.288671 0.57513
24 1 0.552886 0.306501 0.5751
ITEM: TIMESTEP
9000
ITEM: NUMBER OF ATOMS
24
ITEM: BOX BOUNDS pp pp pp
-1.3500000000000000e+01 3.6500000000000000e+01
-2.5000000000000000e+01 2.5000000000000000e+01
-2.5000000000000000e+01 2.5000000000000000e+01
ITEM: ATOMS id type xs ys zs
7 1 0.444342 0.440765 0.273717
6 1 0.452198 0.45307 0.254436
5 1 0.452444 0.482832 0.246443
4 1 0.476833 0.499303 0.255513
3 1 0.485348 0.526382 0.26662
1 1 0.488079 0.571791 0.249352
2 1 0.498846 0.550114 0.261664
12 1 0.483409 0.382705 0.389501
11 1 0.489026 0.400243 0.363399
10 1 0.468816 0.400235 0.338676
8 1 0.459555 0.421482 0.294502
9 1 0.464106 0.423258 0.320768
16 1 0.440925 0.29844 0.442236
13 1 0.479632 0.350219 0.39985
14 1 0.463126 0.33732 0.41336
15 1 0.445997 0.318074 0.420522
20 1 0.49234 0.268036 0.513681
17 1 0.448309 0.272908 0.449374
18 1 0.454042 0.266368 0.474893
19 1 0.477073 0.263048 0.48518
21 1 0.513099 0.262075 0.523083
22 1 0.524179 0.252312 0.542837
23 1 0.545753 0.232521 0.549476
24 1 0.559449 0.216141 0.562858
ITEM: TIMESTEP
10000
ITEM: NUMBER OF ATOMS
24
ITEM: BOX BOUNDS pp pp pp
-1.3500000000000000e+01 3.6500000000000000e+01
-2.5000000000000000e+01 2.5000000000000000e+01
-2.5000000000000000e+01 2.5000000000000000e+01
ITEM: ATOMS id type xs ys zs
7 1 0.446554 0.441669 0.240427
6 1 0.450413 0.458292 0.2224
8 1 0.463869 0.428739 0.254373
5 1 0.443511 0.487385 0.219846
4 1 0.456661 0.510231 0.210319
3 1 0.457713 0.537386 0.195911
1 1 0.495777 0.571618 0.169105
2 1 0.475277 0.554376 0.175152
11 1 0.445921 0.402147 0.335407
10 1 0.453818 0.420548 0.313109
9 1 0.467035 0.428381 0.288383
16 1 0.453396 0.312363 0.433309
17 1 0.471533 0.294669 0.450682
15 1 0.446289 0.343221 0.424373
12 1 0.446069 0.400512 0.364939
13 1 0.451981 0.381168 0.390012
14 1 0.439303 0.359353 0.401187
18 1 0.47306 0.283213 0.470549
20 1 0.487537 0.244897 0.503933
19 1 0.48045 0.256721 0.480964
21 1 0.483166 0.223175 0.519824
24 1 0.540513 0.194816 0.557836
22 1 0.499241 0.204289 0.534237
23 1 0.51966 0.203409 0.554024
ITEM: TIMESTEP
11000
ITEM: NUMBER OF ATOMS
24
ITEM: BOX BOUNDS pp pp pp
-1.3500000000000000e+01 3.6500000000000000e+01
-2.5000000000000000e+01 2.5000000000000000e+01
-2.5000000000000000e+01 2.5000000000000000e+01
ITEM: ATOMS id type xs ys zs
6 1 0.429723 0.486695 0.240989
5 1 0.433311 0.47822 0.218233
4 1 0.430183 0.486152 0.191285
3 1 0.44477 0.504574 0.177429
1 1 0.44546 0.550524 0.156887
2 1 0.438901 0.524877 0.156529
7 1 0.443689 0.481618 0.268137
8 1 0.43995 0.460226 0.284995
9 1 0.450084 0.431803 0.294179
11 1 0.446556 0.397783 0.333819
10 1 0.438473 0.40889 0.309026
12 1 0.437918 0.396707 0.358681
17 1 0.429828 0.31532 0.460329
16 1 0.418987 0.333017 0.441411
15 1 0.427651 0.350377 0.423035
13 1 0.440901 0.380033 0.383075
14 1 0.426549 0.360587 0.39857
21 1 0.481014 0.253344 0.502345
22 1 0.481559 0.237172 0.521825
18 1 0.435295 0.289166 0.459175
20 1 0.469303 0.253859 0.480079
19 1 0.461042 0.277405 0.465609
23 1 0.495523 0.222057 0.534044
24 1 0.500815 0.222797 0.564017
ITEM: TIMESTEP
12000
ITEM: NUMBER OF ATOMS
24
ITEM: BOX BOUNDS pp pp pp
-1.3500000000000000e+01 3.6500000000000000e+01
-2.5000000000000000e+01 2.5000000000000000e+01
-2.5000000000000000e+01 2.5000000000000000e+01
ITEM: ATOMS id type xs ys zs
5 1 0.39837 0.484571 0.215506
4 1 0.389188 0.502512 0.200637
3 1 0.374788 0.502754 0.181341
2 1 0.371248 0.514099 0.158463
1 1 0.357479 0.513331 0.131967
8 1 0.437156 0.451338 0.286349
9 1 0.445079 0.431893 0.304757
6 1 0.42063 0.479171 0.238112
7 1 0.432957 0.455945 0.259663
13 1 0.397878 0.399926 0.401027
11 1 0.420553 0.412308 0.350152
10 1 0.439921 0.423871 0.333516
12 1 0.403648 0.417561 0.374838
18 1 0.401663 0.3021 0.448156
17 1 0.39901 0.327613 0.455121
16 1 0.390147 0.350319 0.452733
15 1 0.40039 0.379967 0.441975
14 1 0.395442 0.399732 0.425844
23 1 0.47363 0.223623 0.506013
19 1 0.421937 0.291214 0.44995
21 1 0.45385 0.260752 0.469925
22 1 0.462153 0.25088 0.497659
20 1 0.4307 0.266486 0.455452
24 1 0.487578 0.210233 0.52459
ITEM: TIMESTEP
13000
ITEM: NUMBER OF ATOMS
24
ITEM: BOX BOUNDS pp pp pp
-1.3500000000000000e+01 3.6500000000000000e+01
-2.5000000000000000e+01 2.5000000000000000e+01
-2.5000000000000000e+01 2.5000000000000000e+01
ITEM: ATOMS id type xs ys zs
1 1 0.30731 0.526802 0.17727
3 1 0.35226 0.522404 0.200364
2 1 0.323381 0.524662 0.196395
5 1 0.385515 0.501414 0.241635
4 1 0.369543 0.506521 0.21478
8 1 0.439756 0.451248 0.279832
9 1 0.453311 0.427488 0.282191
7 1 0.421346 0.462375 0.262857
6 1 0.396848 0.477903 0.25711
11 1 0.442431 0.404824 0.324515
10 1 0.457272 0.420005 0.308321
12 1 0.429 0.397496 0.345598
18 1 0.407706 0.330905 0.478707
19 1 0.418849 0.31107 0.497747
20 1 0.421592 0.28173 0.505984
17 1 0.426798 0.344656 0.461029
16 1 0.427869 0.345833 0.431768
15 1 0.42179 0.36132 0.408411
13 1 0.423447 0.370901 0.357456
14 1 0.413349 0.359404 0.38229
23 1 0.466888 0.214869 0.484928
24 1 0.485147 0.199429 0.496678
21 1 0.443104 0.261304 0.509017
22 1 0.444258 0.231852 0.496717
ITEM: TIMESTEP
14000
ITEM: NUMBER OF ATOMS
24
ITEM: BOX BOUNDS pp pp pp
-1.3500000000000000e+01 3.6500000000000000e+01
-2.5000000000000000e+01 2.5000000000000000e+01
-2.5000000000000000e+01 2.5000000000000000e+01
ITEM: ATOMS id type xs ys zs
1 1 0.311065 0.514078 0.170995
3 1 0.365102 0.511817 0.181572
2 1 0.340802 0.508229 0.163605
4 1 0.385412 0.500328 0.194191
8 1 0.426074 0.424305 0.2576
9 1 0.427635 0.410496 0.284932
5 1 0.39803 0.491443 0.21817
7 1 0.420122 0.448623 0.253333
6 1 0.399296 0.467501 0.240974
13 1 0.43327 0.410244 0.376222
14 1 0.43081 0.407842 0.401947
11 1 0.409657 0.406411 0.324216
10 1 0.414249 0.398028 0.301282
12 1 0.417918 0.396951 0.349833
17 1 0.450262 0.356261 0.458673
16 1 0.442078 0.368316 0.432271
15 1 0.447278 0.39003 0.4218
23 1 0.418564 0.216961 0.531692
24 1 0.396052 0.202764 0.545779
20 1 0.428135 0.291552 0.508725
21 1 0.434427 0.263274 0.507798
22 1 0.434298 0.240744 0.530556
18 1 0.434694 0.337482 0.48175
19 1 0.42716 0.309303 0.490557
ITEM: TIMESTEP
15000
ITEM: NUMBER OF ATOMS
24
ITEM: BOX BOUNDS pp pp pp
-1.3500000000000000e+01 3.6500000000000000e+01
-2.5000000000000000e+01 2.5000000000000000e+01
-2.5000000000000000e+01 2.5000000000000000e+01
ITEM: ATOMS id type xs ys zs
1 1 0.371958 0.545382 0.127865
3 1 0.376696 0.500312 0.155467
2 1 0.369397 0.521949 0.141395
4 1 0.366251 0.487182 0.179268
5 1 0.356109 0.4591 0.19104
8 1 0.378156 0.402139 0.241897
9 1 0.373766 0.393209 0.264621
7 1 0.359805 0.421432 0.222434
10 1 0.387486 0.383503 0.292791
6 1 0.35483 0.44773 0.213844
13 1 0.391425 0.328089 0.357132
11 1 0.387164 0.357645 0.305165
12 1 0.378187 0.349506 0.333432
17 1 0.439491 0.332738 0.456328
16 1 0.430114 0.34259 0.429702
14 1 0.397066 0.332134 0.383782
15 1 0.419465 0.331378 0.406919
23 1 0.421637 0.239558 0.550286
20 1 0.42664 0.310407 0.519073
21 1 0.415187 0.285686 0.52734
22 1 0.414476 0.265113 0.55029
18 1 0.434335 0.343694 0.480346
19 1 0.424664 0.325999 0.499491
24 1 0.405291 0.217342 0.556614
ITEM: TIMESTEP
16000
ITEM: NUMBER OF ATOMS
24
ITEM: BOX BOUNDS pp pp pp
-1.3500000000000000e+01 3.6500000000000000e+01
-2.5000000000000000e+01 2.5000000000000000e+01
-2.5000000000000000e+01 2.5000000000000000e+01
ITEM: ATOMS id type xs ys zs
2 1 0.420458 0.492584 0.126537
1 1 0.411365 0.480236 0.105676
5 1 0.379589 0.47051 0.192447
7 1 0.365323 0.44933 0.243002
6 1 0.374522 0.45253 0.214159
3 1 0.415104 0.485049 0.155007
4 1 0.395939 0.486019 0.176296
10 1 0.389842 0.409725 0.304489
11 1 0.405381 0.397725 0.325878
8 1 0.387218 0.439655 0.262637
9 1 0.388647 0.419745 0.279471
12 1 0.414269 0.398976 0.349048
13 1 0.424305 0.377397 0.365829
17 1 0.411479 0.350124 0.459188
16 1 0.428057 0.355633 0.437527
14 1 0.42047 0.360339 0.386494
15 1 0.432208 0.351164 0.411723
21 1 0.393122 0.287152 0.554651
20 1 0.394629 0.31167 0.536114
18 1 0.410425 0.344618 0.489362
19 1 0.396118 0.325793 0.510079
24 1 0.389121 0.244739 0.615024
23 1 0.384542 0.264011 0.595981
22 1 0.398314 0.274975 0.577962
ITEM: TIMESTEP
17000
ITEM: NUMBER OF ATOMS
24
ITEM: BOX BOUNDS pp pp pp
-1.3500000000000000e+01 3.6500000000000000e+01
-2.5000000000000000e+01 2.5000000000000000e+01
-2.5000000000000000e+01 2.5000000000000000e+01
ITEM: ATOMS id type xs ys zs
2 1 0.336665 0.457595 0.138427
1 1 0.3436 0.44207 0.110804
6 1 0.381684 0.471048 0.242224
5 1 0.373235 0.464061 0.212952
3 1 0.352236 0.460833 0.161841
4 1 0.354007 0.465404 0.191299
7 1 0.376662 0.455536 0.265734
10 1 0.394197 0.402743 0.327702
8 1 0.389864 0.438627 0.284175
9 1 0.39177 0.414882 0.302178
13 1 0.42426 0.370814 0.394761
11 1 0.404088 0.385614 0.343317
12 1 0.419981 0.385824 0.371608
17 1 0.418384 0.339975 0.492367
16 1 0.407967 0.338155 0.467005
14 1 0.41871 0.373275 0.422013
15 1 0.403405 0.359648 0.441583
20 1 0.429842 0.302454 0.559268
18 1 0.43369 0.323059 0.512766
19 1 0.429593 0.321474 0.540241
23 1 0.373377 0.253699 0.583981
21 1 0.419291 0.280921 0.569284
22 1 0.392405 0.272855 0.588332
24 1 0.351849 0.248003 0.59578
ITEM: TIMESTEP
18000
ITEM: NUMBER OF ATOMS
24
ITEM: BOX BOUNDS pp pp pp
-1.3500000000000000e+01 3.6500000000000000e+01
-2.5000000000000000e+01 2.5000000000000000e+01
-2.5000000000000000e+01 2.5000000000000000e+01
ITEM: ATOMS id type xs ys zs
2 1 0.317883 0.463909 0.143938
1 1 0.296021 0.467249 0.132561
3 1 0.332104 0.462925 0.170205
5 1 0.343911 0.432528 0.213281
4 1 0.341446 0.437701 0.183528
7 1 0.385657 0.412247 0.257028
8 1 0.391275 0.41771 0.283557
9 1 0.384006 0.408838 0.312672
6 1 0.367853 0.427942 0.236575
10 1 0.389802 0.388474 0.329127
11 1 0.388069 0.381543 0.35738
12 1 0.401273 0.373465 0.37451
13 1 0.40506 0.379939 0.405561
14 1 0.408045 0.36906 0.432351
15 1 0.392753 0.353377 0.448152
17 1 0.384307 0.334759 0.494708
16 1 0.385572 0.354157 0.476973
18 1 0.380426 0.327484 0.525667
23 1 0.421994 0.249919 0.628741
24 1 0.412723 0.251124 0.654639
20 1 0.398913 0.303167 0.568646
21 1 0.421678 0.280922 0.577459
22 1 0.428875 0.267809 0.605362
19 1 0.394993 0.313645 0.547636
ITEM: TIMESTEP
19000
ITEM: NUMBER OF ATOMS
24
ITEM: BOX BOUNDS pp pp pp
-1.3500000000000000e+01 3.6500000000000000e+01
-2.5000000000000000e+01 2.5000000000000000e+01
-2.5000000000000000e+01 2.5000000000000000e+01
ITEM: ATOMS id type xs ys zs
1 1 0.280454 0.496995 0.152734
2 1 0.29552 0.47831 0.156832
5 1 0.326845 0.434137 0.211139
4 1 0.313806 0.437664 0.186689
3 1 0.297357 0.459637 0.177555
6 1 0.334495 0.41876 0.226718
7 1 0.34402 0.412444 0.252526
8 1 0.363798 0.401251 0.268139
11 1 0.391201 0.386894 0.348713
12 1 0.382052 0.376377 0.37003
9 1 0.378999 0.40575 0.296036
10 1 0.381896 0.404229 0.324279
13 1 0.391846 0.378076 0.399193
14 1 0.396524 0.360412 0.425629
15 1 0.408215 0.355461 0.449356
17 1 0.411328 0.337988 0.503412
18 1 0.42199 0.317945 0.520867
16 1 0.403596 0.337955 0.472703
20 1 0.415616 0.310014 0.570157
21 1 0.424975 0.286883 0.581541
22 1 0.41541 0.268359 0.604969
19 1 0.405039 0.307024 0.543433
23 1 0.392183 0.254667 0.611619
24 1 0.369275 0.254736 0.624633
ITEM: TIMESTEP
20000
ITEM: NUMBER OF ATOMS
24
ITEM: BOX BOUNDS pp pp pp
-1.3500000000000000e+01 3.6500000000000000e+01
-2.5000000000000000e+01 2.5000000000000000e+01
-2.5000000000000000e+01 2.5000000000000000e+01
ITEM: ATOMS id type xs ys zs
1 1 0.276697 0.458373 0.149487
3 1 0.304391 0.445103 0.19218
5 1 0.321785 0.442832 0.234272
4 1 0.308349 0.437231 0.212763
6 1 0.343794 0.435324 0.249949
2 1 0.280223 0.443866 0.175183
7 1 0.344735 0.426488 0.27709
8 1 0.370892 0.424995 0.298606
9 1 0.379835 0.414989 0.320083
12 1 0.427294 0.401201 0.381696
10 1 0.391226 0.420899 0.348253
11 1 0.41484 0.407156 0.361422
13 1 0.430574 0.383132 0.404508
14 1 0.442282 0.374301 0.428758
15 1 0.433478 0.35743 0.4548
17 1 0.430168 0.337157 0.505511
18 1 0.426328 0.3076 0.514199
16 1 0.442062 0.351862 0.482296
21 1 0.370556 0.280403 0.56811
22 1 0.361025 0.268889 0.588803
19 1 0.404914 0.301347 0.532197
23 1 0.343331 0.250914 0.600892
20 1 0.396124 0.290091 0.556253
24 1 0.34715 0.221676 0.612356
ITEM: TIMESTEP
21000
ITEM: NUMBER OF ATOMS
24
ITEM: BOX BOUNDS pp pp pp
-1.3500000000000000e+01 3.6500000000000000e+01
-2.5000000000000000e+01 2.5000000000000000e+01
-2.5000000000000000e+01 2.5000000000000000e+01
ITEM: ATOMS id type xs ys zs
1 1 0.302723 0.471325 0.165964
3 1 0.292448 0.440315 0.214236
2 1 0.302897 0.452582 0.186208
4 1 0.310432 0.428164 0.23007
5 1 0.316703 0.429034 0.257215
6 1 0.338875 0.436179 0.274724
7 1 0.352699 0.424977 0.286018
8 1 0.356548 0.423196 0.311994
9 1 0.379855 0.411736 0.329666
12 1 0.408174 0.41358 0.410949
10 1 0.395579 0.420413 0.354109
11 1 0.405391 0.406594 0.381368
13 1 0.422271 0.396534 0.431292
14 1 0.417172 0.384479 0.452527
15 1 0.424884 0.361124 0.468834
19 1 0.419066 0.296986 0.533989
17 1 0.421519 0.342258 0.512563
18 1 0.426949 0.3177 0.530671
16 1 0.434104 0.35731 0.489809
24 1 0.34339 0.299063 0.618944
21 1 0.374788 0.274863 0.566234
22 1 0.355601 0.274713 0.577455
23 1 0.350963 0.279758 0.602252
20 1 0.401757 0.289335 0.559996
ITEM: TIMESTEP
22000
ITEM: NUMBER OF ATOMS
24
ITEM: BOX BOUNDS pp pp pp
-1.3500000000000000e+01 3.6500000000000000e+01
-2.5000000000000000e+01 2.5000000000000000e+01
-2.5000000000000000e+01 2.5000000000000000e+01
ITEM: ATOMS id type xs ys zs
3 1 0.292735 0.462736 0.230389
2 1 0.295775 0.471361 0.202225
4 1 0.308241 0.441211 0.245583
1 1 0.281606 0.468823 0.180948
5 1 0.306169 0.420982 0.264881
6 1 0.327948 0.41911 0.28658
7 1 0.331013 0.425826 0.307198
8 1 0.352179 0.425958 0.323527
9 1 0.366865 0.418129 0.35169
10 1 0.371027 0.42662 0.376771
11 1 0.393144 0.423576 0.397323
12 1 0.393066 0.410526 0.42433
13 1 0.407775 0.389719 0.437358
14 1 0.420292 0.389022 0.462496
19 1 0.376976 0.309427 0.535926
15 1 0.41123 0.383061 0.484189
17 1 0.400896 0.35541 0.519684
18 1 0.39983 0.328125 0.529563
16 1 0.415467 0.378395 0.50663
21 1 0.363323 0.281421 0.573674
22 1 0.356283 0.277703 0.599665
23 1 0.360151 0.256839 0.618277
20 1 0.36598 0.305175 0.558908
24 1 0.341164 0.240809 0.63742
ITEM: TIMESTEP
23000
ITEM: NUMBER OF ATOMS
24
ITEM: BOX BOUNDS pp pp pp
-1.3500000000000000e+01 3.6500000000000000e+01
-2.5000000000000000e+01 2.5000000000000000e+01
-2.5000000000000000e+01 2.5000000000000000e+01
ITEM: ATOMS id type xs ys zs
3 1 0.2961 0.456002 0.262416
2 1 0.284797 0.440664 0.234346
1 1 0.28514 0.448114 0.206354
5 1 0.293723 0.454319 0.313959
4 1 0.295429 0.445569 0.288712
6 1 0.301785 0.432964 0.331502
7 1 0.330352 0.433055 0.343046
8 1 0.352622 0.422912 0.345606
9 1 0.372386 0.41455 0.366023
10 1 0.392349 0.424914 0.382534
11 1 0.400605 0.416793 0.411099
12 1 0.395079 0.433998 0.43665
13 1 0.39047 0.423548 0.461775
19 1 0.369199 0.325464 0.566296
15 1 0.372903 0.396638 0.492902
17 1 0.367547 0.368645 0.539859
18 1 0.376845 0.350388 0.559148
16 1 0.378156 0.385694 0.520006
14 1 0.378631 0.415464 0.478479
21 1 0.374076 0.272772 0.563991
22 1 0.366602 0.257104 0.587546
20 1 0.378974 0.301157 0.571839
23 1 0.377229 0.236257 0.604097
24 1 0.392493 0.227968 0.629167
ITEM: TIMESTEP
24000
ITEM: NUMBER OF ATOMS
24
ITEM: BOX BOUNDS pp pp pp
-1.3500000000000000e+01 3.6500000000000000e+01
-2.5000000000000000e+01 2.5000000000000000e+01
-2.5000000000000000e+01 2.5000000000000000e+01
ITEM: ATOMS id type xs ys zs
1 1 0.304392 0.435231 0.188236
3 1 0.285986 0.45076 0.238174
2 1 0.291267 0.434462 0.212212
4 1 0.288555 0.450102 0.269172
5 1 0.298152 0.465822 0.291024
6 1 0.307902 0.457499 0.313001
7 1 0.33526 0.465204 0.33112
8 1 0.354877 0.445994 0.333553
9 1 0.35703 0.429146 0.355219
10 1 0.367513 0.429274 0.381211
11 1 0.362369 0.421574 0.40559
12 1 0.376553 0.408367 0.424745
13 1 0.371531 0.398489 0.451397
15 1 0.381222 0.37232 0.503007
16 1 0.370301 0.363495 0.527238
14 1 0.383958 0.39528 0.480068
21 1 0.361701 0.261943 0.609633
22 1 0.377734 0.240598 0.627261
20 1 0.360215 0.275037 0.586515
23 1 0.380774 0.240893 0.654716
19 1 0.371819 0.299276 0.579652
17 1 0.363566 0.33553 0.544214
18 1 0.368279 0.322968 0.568818
24 1 0.400096 0.250886 0.673309
ITEM: TIMESTEP
25000
ITEM: NUMBER OF ATOMS
24
ITEM: BOX BOUNDS pp pp pp
-1.3500000000000000e+01 3.6500000000000000e+01
-2.5000000000000000e+01 2.5000000000000000e+01
-2.5000000000000000e+01 2.5000000000000000e+01
ITEM: ATOMS id type xs ys zs
1 1 0.304241 0.449676 0.201765
2 1 0.290728 0.434815 0.215903
3 1 0.28266 0.438198 0.24312
4 1 0.293772 0.434359 0.267049
5 1 0.314505 0.448454 0.282719
6 1 0.336254 0.447358 0.290599
8 1 0.359657 0.435323 0.335598
9 1 0.363202 0.438344 0.365773
10 1 0.382686 0.425737 0.385265
7 1 0.347336 0.449793 0.318435
11 1 0.377079 0.411746 0.401597
12 1 0.37943 0.410997 0.431879
13 1 0.36268 0.407603 0.45195
15 1 0.362376 0.374633 0.491706
16 1 0.365225 0.365256 0.51865
14 1 0.366835 0.394908 0.47477
21 1 0.351169 0.295023 0.623587
20 1 0.350268 0.320905 0.610634
19 1 0.340056 0.327143 0.58414
17 1 0.360109 0.346407 0.538185
18 1 0.349017 0.343811 0.565801
22 1 0.343536 0.276919 0.644714
23 1 0.35121 0.261488 0.669243
24 1 0.359965 0.233739 0.681273
ITEM: TIMESTEP
26000
ITEM: NUMBER OF ATOMS
24
ITEM: BOX BOUNDS pp pp pp
-1.3500000000000000e+01 3.6500000000000000e+01
-2.5000000000000000e+01 2.5000000000000000e+01
-2.5000000000000000e+01 2.5000000000000000e+01
ITEM: ATOMS id type xs ys zs
1 1 0.284561 0.474288 0.20133
2 1 0.292833 0.468859 0.229475
3 1 0.301004 0.443633 0.235577
4 1 0.324874 0.431623 0.252876
5 1 0.332513 0.421435 0.275895
6 1 0.349008 0.431433 0.294858
8 1 0.354393 0.434321 0.345771
9 1 0.364927 0.443054 0.374825
7 1 0.351443 0.44474 0.322744
10 1 0.364357 0.429523 0.397415
11 1 0.350559 0.433855 0.42132
12 1 0.363854 0.439671 0.446842
13 1 0.363552 0.426141 0.475208
15 1 0.352112 0.404121 0.521993
16 1 0.355746 0.394565 0.549307
17 1 0.361797 0.366677 0.559091
14 1 0.35492 0.427782 0.501986
20 1 0.337843 0.32091 0.614014
19 1 0.341406 0.342972 0.600485
18 1 0.343588 0.347584 0.575276
21 1 0.328347 0.309157 0.634649
22 1 0.333154 0.283815 0.648671
23 1 0.341946 0.270502 0.666665
24 1 0.325127 0.258535 0.684718
ITEM: TIMESTEP
27000
ITEM: NUMBER OF ATOMS
24
ITEM: BOX BOUNDS pp pp pp
-1.3500000000000000e+01 3.6500000000000000e+01
-2.5000000000000000e+01 2.5000000000000000e+01
-2.5000000000000000e+01 2.5000000000000000e+01
ITEM: ATOMS id type xs ys zs
1 1 0.272854 0.46917 0.16245
2 1 0.276129 0.457582 0.190613
3 1 0.275436 0.465178 0.218376
4 1 0.296204 0.466258 0.240239
5 1 0.301521 0.459049 0.266016
6 1 0.324945 0.456859 0.285892
8 1 0.348856 0.452303 0.328023
9 1 0.351167 0.461052 0.354562
7 1 0.328659 0.450304 0.313121
10 1 0.352342 0.450895 0.380381
11 1 0.363073 0.451767 0.40492
12 1 0.357453 0.454929 0.438161
13 1 0.365583 0.440227 0.464691
15 1 0.355485 0.431559 0.508406
14 1 0.362954 0.448435 0.490609
17 1 0.353398 0.392 0.550046
20 1 0.334828 0.350233 0.606947
19 1 0.351858 0.357234 0.592087
18 1 0.353752 0.380089 0.575738
16 1 0.36476 0.416881 0.533516
22 1 0.343396 0.315221 0.63701
23 1 0.330349 0.293517 0.648849
24 1 0.327976 0.26455 0.65119
21 1 0.33119 0.326579 0.616505
ITEM: TIMESTEP
28000
ITEM: NUMBER OF ATOMS
24
ITEM: BOX BOUNDS pp pp pp
-1.3500000000000000e+01 3.6500000000000000e+01
-2.5000000000000000e+01 2.5000000000000000e+01
-2.5000000000000000e+01 2.5000000000000000e+01
ITEM: ATOMS id type xs ys zs
2 1 0.282181 0.506237 0.184394
1 1 0.284658 0.515983 0.15869
3 1 0.271067 0.507296 0.212945
5 1 0.268482 0.493628 0.272944
6 1 0.280116 0.494008 0.295866
4 1 0.275076 0.498953 0.242851
8 1 0.297511 0.472051 0.330665
9 1 0.30874 0.470275 0.355396
7 1 0.280253 0.480249 0.318135
10 1 0.314446 0.452635 0.377863
11 1 0.327955 0.452126 0.403377
12 1 0.342176 0.437736 0.42379
13 1 0.36644 0.425576 0.43888
15 1 0.398298 0.422754 0.487306
14 1 0.373785 0.425797 0.472599
16 1 0.407913 0.421922 0.512463
20 1 0.408468 0.367562 0.601535
19 1 0.422233 0.374561 0.577109
18 1 0.42271 0.398688 0.558396
17 1 0.422253 0.406335 0.528743
23 1 0.3595 0.326309 0.64491
24 1 0.33896 0.334299 0.658235
22 1 0.379236 0.33953 0.640134
21 1 0.392133 0.345551 0.618429
ITEM: TIMESTEP
29000
ITEM: NUMBER OF ATOMS
24
ITEM: BOX BOUNDS pp pp pp
-1.3500000000000000e+01 3.6500000000000000e+01
-2.5000000000000000e+01 2.5000000000000000e+01
-2.5000000000000000e+01 2.5000000000000000e+01
ITEM: ATOMS id type xs ys zs