LAMMPS (29 Aug 2024)
  using 8 OpenMP thread(s) per MPI task
Reading data file ...
  orthogonal box = (-13.5 -25 -25) to (36.5 25 25)
  1 by 1 by 1 MPI processor grid
  reading atoms ...
  24 atoms
  scanning bonds ...
  1 = max bonds/atom
  scanning angles ...
  1 = max angles/atom
  scanning dihedrals ...
  1 = max dihedrals/atom
  orthogonal box = (-13.5 -25 -25) to (36.5 25 25)
  1 by 1 by 1 MPI processor grid
  reading bonds ...
  23 bonds
  reading angles ...
  22 angles
  reading dihedrals ...
  21 dihedrals
Finding 1-2 1-3 1-4 neighbors ...
  special bond factors lj:    0        0        0       
  special bond factors coul:  0        0        0       
     2 = max # of 1-2 neighbors
     2 = max # of 1-3 neighbors
     4 = max # of 1-4 neighbors
     6 = max # of special neighbors
  special bonds CPU = 0.000 seconds
  read_data CPU = 0.003 seconds
24 atoms in group hep

CITE-CITE-CITE-CITE-CITE-CITE-CITE-CITE-CITE-CITE-CITE-CITE-CITE

Your simulation uses code contributions which should be cited:
- Type Label Framework: https://doi.org/10.1021/acs.jpcb.3c08419
The log file lists these citations in BibTeX format.

CITE-CITE-CITE-CITE-CITE-CITE-CITE-CITE-CITE-CITE-CITE-CITE-CITE

Generated 0 of 0 mixed pair_coeff terms from geometric mixing rule
Neighbor list info ...
  update: every = 1 steps, delay = 0 steps, check = yes
  max neighbors/atom: 2000, page size: 100000
  master list distance cutoff = 7.44
  ghost atom cutoff = 7.44
  binsize = 3.72, bins = 14 14 14
  2 neighbor lists, perpetual/occasional/extra = 2 0 0
  (1) pair lj/cut, perpetual, trim from (2)
      attributes: half, newton on, cut 2.8
      pair build: trim
      stencil: none
      bin: none
  (2) pair coul/debye, perpetual
      attributes: half, newton on
      pair build: half/bin/newton
      stencil: half/bin/3d
      bin: standard
Setting up cg style minimization ...
  Unit style    : lj
  Current step  : 0
Per MPI rank memory allocation (min/avg/max) = 17.62 | 17.62 | 17.62 Mbytes
   Step          Temp          TotEng         KinEng         PotEng         E_pair         E_coul         E_vdwl         E_bond        E_angle        E_dihed    
         0   0              1.3334404      0              1.3334404      0.11947053     0.11947053     0              0.00099476904  0.006562903    1.2064122    
         2   0              1.3332339      0              1.3332339      0.11947099     0.11947099     0              0.00083900571  0.0070390052   1.2058849    
Loop time of 0.000335664 on 8 procs for 2 steps with 24 atoms

1633.2% CPU use with 1 MPI tasks x 8 OpenMP threads

Minimization stats:
  Stopping criterion = linesearch alpha is zero
  Energy initial, next-to-last, final = 
      1.33344041472614   1.33323391320059   1.33323391320059
  Force two-norm initial, final = 1.2144665 0.78677328
  Force max component initial, final = 0.38937927 0.36653752
  Final line search alpha, max atom move = 2.62902e-07 9.6363449e-08
  Iterations, force evaluations = 2 43

MPI task timing breakdown:
Section |  min time  |  avg time  |  max time  |%varavg| %total
---------------------------------------------------------------
Pair    | 0.00010082 | 0.00010082 | 0.00010082 |   0.0 | 30.04
Bond    | 0.00016903 | 0.00016903 | 0.00016903 |   0.0 | 50.36
Neigh   | 0          | 0          | 0          |   0.0 |  0.00
Comm    | 4.033e-06  | 4.033e-06  | 4.033e-06  |   0.0 |  1.20
Output  | 0          | 0          | 0          |   0.0 |  0.00
Modify  | 0          | 0          | 0          |   0.0 |  0.00
Other   |            | 6.178e-05  |            |       | 18.41

Nlocal:             24 ave          24 max          24 min
Histogram: 1 0 0 0 0 0 0 0 0 0
Nghost:              0 ave           0 max           0 min
Histogram: 1 0 0 0 0 0 0 0 0 0
Neighs:              0 ave           0 max           0 min
Histogram: 1 0 0 0 0 0 0 0 0 0

Total # of neighbors = 0
Ave neighs/atom = 0
Ave special neighs/atom = 5.5
Neighbor list builds = 0
Dangerous builds = 0
Generated 0 of 0 mixed pair_coeff terms from geometric mixing rule
Setting up Verlet run ...
  Unit style    : lj
  Current step  : 2
  Time step     : 0.005
Per MPI rank memory allocation (min/avg/max) = 17.5 | 17.5 | 17.5 Mbytes
   Step          Temp          TotEng         KinEng         PotEng         E_pair         E_coul         E_vdwl         E_bond        E_angle        E_dihed    
         2   0              1.3332339      0              1.3332339      0.11947099     0.11947099     0              0.00083900571  0.0070390052   1.2058849    
       100   0.45890013     2.3369121      0.65966894     1.6772432      0.11587153     0.11587153     0              0.15642272     0.11547856     1.2894704    
       200   0.88402725     3.4023863      1.2707892      2.1315971      0.11087069     0.11087069     0              0.30895537     0.30317546     1.4085956    
       300   1.029807       3.8842539      1.4803476      2.4039063      0.10762117     0.10762117     0              0.32754905     0.50966146     1.4590746    
       400   0.90942741     3.7847459      1.3073019      2.477444       0.1014781      0.1014781      0              0.39644788     0.40653063     1.5729874    
       500   1.1965827      4.2494274      1.7200876      2.5293399      0.10785681     0.10785681     0              0.44334024     0.53556962     1.4425732    
       600   0.89037075     3.9496089      1.279908       2.669701       0.11823482     0.11823482     0              0.59658011     0.28204274     1.6728433    
       700   1.2612706      4.3433264      1.8130765      2.5302499      0.12248445     0.12248445     0              0.57880335     0.36078533     1.4681768    
       800   0.89740768     4.0421428      1.2900235      2.7521192      0.12667566     0.12667566     0              0.79257393     0.35191168     1.480958     
       900   0.91728196     4.0358862      1.3185928      2.7172933      0.12105281     0.12105281     0              0.62785953     0.51955552     1.4488255    
      1000   1.2007797      4.4870882      1.7261208      2.7609674      0.12510696     0.12510696     0              0.5771814      0.4292025      1.6294765    
      1100   1.1060795      4.689007       1.5899893      3.0990177      0.1221309      0.1221309      0              1.0262905      0.3467178      1.6038785    
      1200   1.3490489      4.6654172      1.9392578      2.7261594      0.1111916      0.1111916      0              0.6635001      0.44048427     1.5109835    
      1300   1.2708973      4.305911       1.8269149      2.4789961      0.1100027      0.1100027      0              0.5064815      0.45862107     1.4038909    
      1400   0.86044273     3.7157159      1.2368864      2.4788295      0.11292638     0.11292638     0              0.43455127     0.50813235     1.4232195    
      1500   0.74651298     3.7810005      1.0731124      2.7078881      0.10637447     0.10637447     0              0.63240885     0.51467338     1.4544314    
      1600   0.92872031     3.6633436      1.3350354      2.3283081      0.1075486      0.1075486      0              0.42145007     0.38862661     1.4106828    
      1700   0.91108336     3.7582835      1.3096823      2.4486012      0.11658388     0.11658388     0              0.55224569     0.32217475     1.4575968    
      1800   1.0277551      3.6509198      1.4773979      2.1735219      0.1274655      0.1274655      0              0.35402775     0.28220195     1.4098267    
      1900   1.168201       3.8520653      1.6792889      2.1727764      0.11591817     0.11591817     0              0.36852125     0.26854956     1.4197874    
      2000   0.97372127     3.8142667      1.3997243      2.4145424      0.1104691      0.1104691      0              0.58586969     0.21535082     1.5028528    
      2100   0.87974448     3.8253499      1.2646327      2.5607172      0.10882348     0.10882348     0              0.59916545     0.45557486     1.3971534    
      2200   1.0614701      3.6500623      1.5258633      2.124199       0.12342137     0.12342137     0              0.33660971     0.33270436     1.3314636    
      2300   1.0959995      3.794271       1.5754994      2.2187717      0.13139282     0.13139282     0              0.25353479     0.41934859     1.4144955    
      2400   0.85607647     3.8334037      1.2306099      2.6027938      0.13067287     0.13067287     0              0.44647111     0.46601346     1.5596363    
      2500   0.82979896     3.4722465      1.192836       2.2794105      0.12866509     0.12866509     0              0.47427093     0.20533235     1.4711422    
      2600   0.79706549     3.7021211      1.1457816      2.5563394      0.12306819     0.12306819     0              0.55696787     0.42747398     1.4488294    
      2700   1.0944987      3.978452       1.5733419      2.4051101      0.12759659     0.12759659     0              0.20252367     0.53069173     1.5442981    
      2800   1.0565204      4.1368688      1.5187481      2.6181207      0.11036532     0.11036532     0              0.60634515     0.32401749     1.5773927    
      2900   1.1729975      4.1362403      1.686184       2.4500563      0.10963608     0.10963608     0              0.21995224     0.63149735     1.4889707    
      3000   1.0859489      4.0636145      1.5610515      2.502563       0.11612778     0.11612778     0              0.4779507      0.3588605      1.549624     
      3100   1.0716922      3.8548024      1.5405576      2.3142449      0.11667982     0.11667982     0              0.40749167     0.33986874     1.4502047    
      3200   1.2558095      4.090702       1.8052261      2.2854759      0.11213593     0.11213593     0              0.45673234     0.35811811     1.3584896    
      3300   1.2495906      4.471768       1.7962865      2.6754814      0.11343995     0.11343995     0              0.57661693     0.53225469     1.4531698    
      3400   0.80894579     3.8957656      1.1628596      2.732906       0.10454643     0.10454643     0              0.70770093     0.259847       1.6608117    
      3500   1.0201439      3.8277975      1.4664569      2.3613406      0.10441259     0.10441259     0              0.49556932     0.27038375     1.490975     
      3600   0.85316427     3.7527063      1.2264236      2.5262826      0.11261021     0.11261021     0              0.6057953      0.44680694     1.3610702    
      3700   1.0078711      3.8142911      1.4488146      2.3654765      0.10979701     0.10979701     0              0.46443254     0.41896041     1.3722865    
      3800   1.0298942      4.0530965      1.4804729      2.5726235      0.1110907      0.1110907      0              0.51088783     0.43886263     1.5117824    
      3900   0.92743773     3.7180464      1.3331917      2.3848546      0.10719243     0.10719243     0              0.30508697     0.39250547     1.5800698    
      4000   0.85157716     3.9584651      1.2241422      2.7343229      0.10891258     0.10891258     0              0.61052394     0.59650521     1.4183812    
      4100   0.78400723     3.6311933      1.1270104      2.5041829      0.11725227     0.11725227     0              0.58152166     0.4458023      1.3596067    
      4200   0.98127146     3.8264851      1.4105777      2.4159073      0.12934786     0.12934786     0              0.59227262     0.28999892     1.4042879    
      4300   0.79330283     3.3285218      1.1403728      2.188149       0.11689016     0.11689016     0              0.34156995     0.29273306     1.4369558    
      4400   0.86774081     3.94855        1.2473774      2.7011726      0.11011099     0.11011099     0              0.62668212     0.55071746     1.4136621    
      4500   1.143565       3.8816916      1.6438747      2.2378169      0.10616821     0.10616821     0              0.32564623     0.30219396     1.5038085    
      4600   1.1043943      4.3403234      1.5875669      2.7527565      0.10158237     0.10158237     0              0.7251352      0.32961843     1.5964205    
      4700   1.428793       4.2896575      2.05389        2.2357675      0.1045642      0.1045642      0              0.39851113     0.2403148      1.4923773    
      4800   1.4141272      4.4174576      2.0328079      2.3846497      0.10741853     0.10741853     0              0.33510146     0.41653807     1.5255917    
      4900   1.0610838      4.2978948      1.525308       2.7725869      0.1116892      0.1116892      0              0.55833019     0.67620608     1.4263614    
      5000   1.0471041      3.7802073      1.5052121      2.2749952      0.1151108      0.1151108      0              0.44227924     0.24854357     1.4690616    
      5100   1.0932377      4.18808        1.5715292      2.6165508      0.10820637     0.10820637     0              0.54392404     0.41994669     1.5444737    
      5200   0.96575921     3.883813       1.3882789      2.4955341      0.10875551     0.10875551     0              0.47745111     0.2760453      1.6332822    
      5300   0.96484385     3.4526159      1.386963       2.0656529      0.10579731     0.10579731     0              0.15016238     0.31103799     1.4986552    
      5400   0.83371874     3.4818054      1.1984707      2.2833347      0.1068649      0.1068649      0              0.41584977     0.23431165     1.5263084    
      5500   1.0013651      3.7114605      1.4394623      2.2719982      0.10670091     0.10670091     0              0.29535487     0.41217405     1.4577684    
      5600   0.79895882     3.7804229      1.1485033      2.6319196      0.1146893      0.1146893      0              0.73847278     0.32214595     1.4566115    
      5700   1.0464209      4.2074564      1.50423        2.7032263      0.11598866     0.11598866     0              0.52607481     0.53278251     1.5283804    
      5800   1.0079454      3.9034704      1.4489215      2.4545489      0.11576912     0.11576912     0              0.32245793     0.56049264     1.4558292    
      5900   1.0896588      3.9841135      1.5663845      2.4177291      0.11832248     0.11832248     0              0.27142241     0.61045905     1.4175251    
      6000   0.8775245      3.9374293      1.2614415      2.6759878      0.11032857     0.11032857     0              0.38213436     0.37308869     1.8104362    
      6100   1.1278252      4.3266288      1.6212487      2.7053801      0.10869736     0.10869736     0              0.6086203      0.47030607     1.5177563    
      6200   1.0662171      4.1163358      1.5326871      2.5836487      0.11605718     0.11605718     0              0.58276308     0.4539962      1.4308322    
      6300   1.0919859      4.013837       1.5697298      2.4441072      0.12308264     0.12308264     0              0.55398293     0.20935062     1.557691     
      6400   0.82494795     3.7309924      1.1858627      2.5451297      0.12312242     0.12312242     0              0.32638031     0.62784471     1.4677822    
      6500   0.94656795     3.9561876      1.3606914      2.5954962      0.12621611     0.12621611     0              0.32599481     0.55644691     1.5868384    
      6600   1.1888976      4.2533215      1.7090404      2.5442811      0.1269766      0.1269766      0              0.51044985     0.38014478     1.5267099    
      6700   1.2199206      4.4788094      1.7536358      2.7251736      0.14089372     0.14089372     0              0.59714994     0.44339321     1.5437367    
      6800   1.1477844      4.3822836      1.6499401      2.7323435      0.13504738     0.13504738     0              0.74108914     0.47682163     1.3793854    
      6900   1.5179333      4.5733848      2.1820291      2.3913557      0.10862164     0.10862164     0              0.51769028     0.34359007     1.4214537    
      7000   1.3386985      4.5693416      1.9243791      2.6449625      0.098410147    0.098410147    0              0.71722683     0.35120816     1.4781173    
      7100   1.2511669      4.572801       1.7985524      2.7742485      0.10690212     0.10690212     0              0.56993248     0.4463369      1.651077     
      7200   0.98673011     4.490558       1.4184245      3.0721335      0.11660541     0.11660541     0              0.76123498     0.58173397     1.6125592    
      7300   1.0382349      4.1177278      1.4924626      2.6252652      0.11421836     0.11421836     0              0.57114144     0.48725208     1.4526533    
      7400   1.156936       4.3112626      1.6630955      2.6481671      0.11058625     0.11058625     0              0.72860699     0.27308154     1.5358923    
      7500   1.240988       4.3392887      1.7839203      2.5553684      0.11147492     0.11147492     0              0.45253091     0.43904481     1.5523178    
      7600   1.3500148      4.397935       1.9406462      2.4572888      0.10899969     0.10899969     0              0.38209678     0.43600161     1.5301907    
      7700   1.0392411      4.1236839      1.4939091      2.6297748      0.10878582     0.10878582     0              0.60408333     0.37079673     1.5461089    
      7800   1.2802348      4.1631415      1.8403375      2.3228039      0.11530955     0.11530955     0              0.33380997     0.38270415     1.4909803    
      7900   1.2569304      4.1749449      1.8068374      2.3681075      0.12906654     0.12906654     0              0.22624534     0.54797219     1.4648234    
      8000   1.2964962      4.4578846      1.8637133      2.5941712      0.13097374     0.13097374     0              0.47662406     0.45171592     1.5348575    
      8100   1.1587528      4.4868789      1.6657071      2.8211718      0.13414363     0.13414363     0              0.56654723     0.49549046     1.6249905    
      8200   0.94169717     4.0553123      1.3536897      2.7016226      0.14924398     0.14924398     0              0.57373657     0.51845448     1.4601876    
      8300   1.1544639      4.3653544      1.6595419      2.7058125      0.13904077     0.13904077     0              0.53692137     0.46914445     1.5607059    
      8400   1.2681884      4.238662       1.8230208      2.4156412      0.12477598     0.12477598     0              0.47385612     0.41124554     1.4057636    
      8500   1.2003202      4.8522675      1.7254602      3.1268073      0.14940421     0.14940421     0              0.76139025     0.77173971     1.4442731    
      8600   1.4296144      5.1990102      2.0550707      3.1439396      0.17037782     0.17037782     0              0.54765922     0.75260531     1.6732972    
      8700   1.5579542      4.9784129      2.2395591      2.7388538      0.16436324     0.16436324     0              0.33986245     0.68502766     1.5496005    
      8800   1.4397854      4.719602       2.0696915      2.6499105      0.13504074     0.13504074     0              0.49926813     0.41684146     1.5987602    
      8900   1.1732843      4.6987764      1.6865962      3.0121802      0.1295848      0.1295848      0              0.7409719      0.645156       1.4964675    
      9000   0.96012952     4.3963555      1.3801862      3.0161693      0.14288867     0.14288867     0              0.67602712     0.71564043     1.4816131    
      9100   1.1137914      3.9768289      1.6010751      2.3757537      0.15360139     0.15360139     0              0.50665959     0.36670681     1.3487859    
      9200   0.94447444     3.8050887      1.357682       2.4474067      0.14159667     0.14159667     0              0.33236028     0.49172019     1.4817295    
      9300   0.90555322     3.9163197      1.3017328      2.614587       0.14845973     0.14845973     0              0.39422484     0.68421697     1.3876854    
      9400   1.0997664      4.1875646      1.5809142      2.6066504      0.15654585     0.15654585     0              0.43277061     0.47029412     1.5470398    
      9500   1.0853709      4.0799205      1.5602207      2.5196999      0.12893248     0.12893248     0              0.36451109     0.39128801     1.6349683    
      9600   0.79532346     3.4470334      1.1432775      2.3037559      0.11669752     0.11669752     0              0.23501789     0.52247095     1.4295696    
      9700   1.1641954      3.8858462      1.6735309      2.2123154      0.11392729     0.11392729     0              0.26407613     0.39272992     1.441582     
      9800   1.0985583      3.7685602      1.5791775      2.1893827      0.11748009     0.11748009     0              0.46874452     0.20591198     1.3972461    
      9900   1.0845651      3.8166772      1.5590624      2.2576148      0.11144026     0.11144026     0              0.56031259     0.12775489     1.4581071    
     10000   0.88505209     3.8695881      1.2722624      2.5973257      0.1075552      0.1075552      0              0.61229505     0.27379776     1.6036777    
     10100   0.97905619     3.9035954      1.4073933      2.4962021      0.10513304     0.10513304     0              0.53884263     0.43162794     1.4205985    
     10200   0.7943812      3.8337089      1.141923       2.6917859      0.10946829     0.10946829     0              0.60776532     0.49168626     1.482866     
     10300   1.1132087      4.354454       1.6002375      2.7542164      0.10641828     0.10641828     0              0.78875569     0.34511529     1.5139272    
     10400   1.1136496      4.0207451      1.6008713      2.4198737      0.11252304     0.11252304     0              0.55411638     0.2526206      1.5006137    
     10500   0.74521123     3.9257778      1.0712411      2.8545367      0.115178       0.115178       0              0.63419502     0.64665329     1.4585104    
     10600   1.1479541      4.0787966      1.6501841      2.4286125      0.1192443      0.1192443      0              0.32708928     0.45240393     1.529875     
     10700   1.1640384      4.4162077      1.6733052      2.7429025      0.12452247     0.12452247     0              0.3237529      0.57270419     1.7219229    
     10800   1.0206762      4.0702006      1.467222       2.6029785      0.1425438      0.1425438      0              0.38955724     0.37935645     1.6915211    
     10900   1.141642       4.2007561      1.6411103      2.5596458      0.14900814     0.14900814     0              0.40716537     0.50777607     1.4956962    
     11000   1.1933831      3.9889091      1.7154883      2.2734208      0.14511248     0.14511248     0              0.29132774     0.36700596     1.4699746    
     11100   1.0416427      3.7623518      1.4973613      2.2649904      0.12146838     0.12146838     0              0.28233298     0.28043478     1.5807543    
     11200   0.79534781     3.3466545      1.1433125      2.203342       0.12457475     0.12457475     0              0.33407795     0.31625339     1.4284359    
     11300   1.0869814      3.9176851      1.5625358      2.3551492      0.1313908      0.1313908      0              0.32972949     0.49005997     1.403969     
     11400   0.9989826      4.4104509      1.4360375      2.9744134      0.1285364      0.1285364      0              0.23442908     1.2230552      1.3883928    
     11500   1.204244       4.6361676      1.7311007      2.9050668      0.13657554     0.13657554     0              0.69436365     0.65841202     1.4157156    
     11600   1.1283312      4.2691231      1.6219761      2.647147       0.13697926     0.13697926     0              0.49391217     0.63144604     1.3848095    
     11700   1.1406451      4.0149565      1.6396773      2.3752791      0.12063415     0.12063415     0              0.40152677     0.2606129      1.5925053    
     11800   1.2350239      4.2477792      1.7753468      2.4724324      0.12601161     0.12601161     0              0.46776675     0.34400972     1.5346443    
     11900   1.0944086      4.0649429      1.5732124      2.4917305      0.12351792     0.12351792     0              0.49096839     0.37435328     1.5028909    
     12000   0.98340389     4.0102792      1.4136431      2.5966361      0.12959416     0.12959416     0              0.65514        0.31499231     1.4969096    
     12100   0.79049892     3.6096471      1.1363422      2.4733049      0.13307869     0.13307869     0              0.37620143     0.37045494     1.5935698    
     12200   0.98887154     3.7378921      1.4215028      2.3163892      0.13606474     0.13606474     0              0.4018322      0.29955869     1.4789336    
     12300   1.1074442      3.8818455      1.5919511      2.2898944      0.1265519      0.1265519      0              0.40548396     0.35744797     1.4004106    
     12400   1.0811126      4.1807227      1.5540994      2.6266233      0.11252416     0.11252416     0              0.49807924     0.43794118     1.5780787    
     12500   1.29368        4.1438314      1.859665       2.2841664      0.11841473     0.11841473     0              0.30839423     0.30149481     1.5558626    
     12600   0.82820011     3.7050097      1.1905377      2.5144721      0.12514466     0.12514466     0              0.53662221     0.3890497      1.4636555    
     12700   1.1952943      4.1514696      1.7182356      2.433234       0.1236325      0.1236325      0              0.340559       0.4645045      1.504538     
     12800   1.1882703      4.225809       1.7081386      2.5176705      0.13290729     0.13290729     0              0.43494535     0.54957104     1.4002468    
     12900   1.1706537      3.8920796      1.6828147      2.2092649      0.12507221     0.12507221     0              0.25664399     0.40563311     1.4219156    
     13000   0.87795285     3.7353763      1.2620572      2.4733191      0.12666689     0.12666689     0              0.26189763     0.59611458     1.48864      
     13100   1.2018958      4.2909715      1.7277252      2.5632463      0.13484854     0.13484854     0              0.54012287     0.41556581     1.4727091    
     13200   0.98775529     3.9910889      1.4198982      2.5711906      0.13334394     0.13334394     0              0.50718739     0.30711815     1.6235411    
     13300   0.91913451     3.6272142      1.3212559      2.3059583      0.11817785     0.11817785     0              0.30445841     0.48211766     1.4012044    
     13400   0.90837872     3.801319       1.3057944      2.4955246      0.10615912     0.10615912     0              0.56056841     0.37310395     1.4556931    
     13500   1.2019142      3.99797        1.7277517      2.2702183      0.10884276     0.10884276     0              0.38638417     0.36131533     1.413676     
     13600   1.2973938      4.515429       1.8650036      2.6504254      0.12354072     0.12354072     0              0.40431789     0.56282742     1.5597394    
     13700   1.2858866      4.2877201      1.8484619      2.4392582      0.12079066     0.12079066     0              0.27941872     0.51639745     1.5226513    
     13800   0.90767048     4.2836446      1.3047763      2.9788683      0.11872688     0.11872688     0              0.86615077     0.49630475     1.4976859    
     13900   1.0413905      3.8992087      1.4969989      2.4022098      0.12402157     0.12402157     0              0.38927251     0.37591837     1.5129973    
     14000   1.0301221      4.0502643      1.4808005      2.5694638      0.12463768     0.12463768     0              0.66545485     0.38783139     1.3915399    
     14100   1.1925901      4.3050979      1.7143482      2.5907497      0.124563       0.124563       0              0.60705949     0.45864324     1.400484     
     14200   0.98024021     4.3075204      1.4090953      2.8984251      0.12824647     0.12824647     0              0.6966797      0.45014847     1.6233505    
     14300   1.296153       4.1235395      1.8632199      2.2603196      0.12465697     0.12465697     0              0.32773415     0.28353331     1.5243952    
     14400   1.3057882      4.4200727      1.8770705      2.5430022      0.12237746     0.12237746     0              0.58623416     0.25014157     1.584249     
     14500   1.1553224      4.1708565      1.660776       2.5100805      0.12041819     0.12041819     0              0.38460611     0.40928192     1.5957743    
     14600   0.99143466     3.7794706      1.4251873      2.3542833      0.11904785     0.11904785     0              0.33060321     0.42476327     1.479869     
     14700   0.8995507      3.8772363      1.2931041      2.5841321      0.11971658     0.11971658     0              0.67974293     0.29577466     1.488898     
     14800   1.1169609      4.1983138      1.6056312      2.5926825      0.11905277     0.11905277     0              0.61512732     0.37216609     1.4863363    
     14900   1.061501       3.9419584      1.5259077      2.4160507      0.11349737     0.11349737     0              0.32267637     0.59666973     1.3832072    
     15000   1.0468424      4.0122845      1.5048359      2.5074487      0.1118615      0.1118615      0              0.55465712     0.54932575     1.2916043    
     15100   0.98031407     3.7732646      1.4092015      2.3640631      0.11641647     0.11641647     0              0.6057292      0.2404342      1.4014832    
     15200   0.69035747     3.7067766      0.99238887     2.7143877      0.12099684     0.12099684     0              0.66893316     0.34570359     1.5787541    
     15300   0.80247207     3.7471146      1.1535536      2.593561       0.12747502     0.12747502     0              0.56120833     0.33428839     1.5705892    
     15400   1.0723843      3.7873441      1.5415524      2.2457918      0.12489773     0.12489773     0              0.31037354     0.33008024     1.4804403    
     15500   1.0657858      3.7964076      1.5320671      2.2643405      0.114268       0.114268       0              0.44110563     0.31333267     1.3956342    
     15600   0.87625907     3.8034848      1.2596224      2.5438624      0.10599071     0.10599071     0              0.63919552     0.26435252     1.5343236    
     15700   0.9660593      4.1022591      1.3887102      2.7135489      0.10587595     0.10587595     0              0.47380556     0.64975057     1.4841168    
     15800   1.1473063      3.9928875      1.6492528      2.3436347      0.11317406     0.11317406     0              0.35765403     0.48882037     1.3839862    
     15900   0.89708818     3.8203848      1.2895643      2.5308205      0.11783108     0.11783108     0              0.45583185     0.46210593     1.4950517    
     16000   0.85493111     3.6027792      1.2289635      2.3738157      0.10805556     0.10805556     0              0.26431207     0.53160946     1.4698386    
     16100   0.99336898     3.826732       1.4279679      2.3987641      0.11245174     0.11245174     0              0.39454377     0.51814459     1.373624     
     16200   0.90907193     3.7177606      1.3067909      2.4109697      0.10866961     0.10866961     0              0.54067164     0.3281605      1.433468     
     16300   0.965339       3.7739341      1.3876748      2.3862593      0.11149877     0.11149877     0              0.44767082     0.36530225     1.4617874    
     16400   1.0250997      4.1750125      1.4735808      2.7014317      0.12540548     0.12540548     0              0.50551209     0.60423268     1.4662814    
     16500   1.154214       4.0829458      1.6591826      2.4237631      0.12355409     0.12355409     0              0.34589189     0.33699022     1.6173269    
     16600   1.2211994      4.1882396      1.7554741      2.4327655      0.12653438     0.12653438     0              0.57979001     0.34088828     1.3855528    
     16700   1.1386457      4.2545737      1.6368032      2.6177705      0.11872649     0.11872649     0              0.725327       0.30756851     1.4661485    
     16800   0.96269253     4.054307       1.3838705      2.6704365      0.12199361     0.12199361     0              0.55665621     0.40564128     1.5861454    
     16900   1.1772197      3.9377763      1.6922534      2.245523       0.11878406     0.11878406     0              0.35529337     0.22445926     1.5469863    
     17000   0.86659889     3.7097363      1.2457359      2.4640004      0.10913297     0.10913297     0              0.48035856     0.32897304     1.5455358    
     17100   0.76233866     3.7324042      1.0958618      2.6365424      0.11798107     0.11798107     0              0.6601263      0.35446857     1.5039664    
     17200   1.0332247      3.9427137      1.4852606      2.4574532      0.12140565     0.12140565     0              0.21904214     0.67267945     1.4443259    
     17300   1.0818272      4.4800486      1.5551266      2.924922       0.11658161     0.11658161     0              0.55948912     0.67339667     1.5754546    
     17400   1.088079       4.0781114      1.5641136      2.5139978      0.11688867     0.11688867     0              0.52567839     0.40260274     1.468828     
     17500   1.2233413      4.4885619      1.7585531      2.7300088      0.10799953     0.10799953     0              0.49777737     0.68265675     1.4415752    
     17600   0.86911688     3.973908       1.2493555      2.7245525      0.10077151     0.10077151     0              0.68726906     0.40228136     1.5342306    
     17700   1.0087895      3.9738719      1.4501349      2.523737       0.10483464     0.10483464     0              0.5321994      0.4367676      1.4499353    
     17800   1.0164021      4.0056956      1.461078       2.5446176      0.10250174     0.10250174     0              0.61584286     0.36069727     1.4655757    
     17900   1.1331773      3.9815871      1.6289423      2.3526448      0.10321558     0.10321558     0              0.46015006     0.36165465     1.4276245    
     18000   1.0198639      4.2183217      1.4660544      2.7522674      0.10102896     0.10102896     0              0.65207123     0.40332122     1.595846     
     18100   1.1590478      3.9959834      1.6661312      2.3298522      0.10498882     0.10498882     0              0.54826166     0.27615203     1.4004497    
     18200   1.2210679      4.076153       1.7552852      2.3208678      0.10442852     0.10442852     0              0.48355897     0.35121963     1.3816607    
     18300   1.0783932      4.1498639      1.5501903      2.5996736      0.097742672    0.097742672    0              0.77292497     0.32230733     1.4066986    
     18400   1.0626349      4.1601442      1.5275377      2.6326065      0.094990294    0.094990294    0              0.59362822     0.43651607     1.5074719    
     18500   1.0181158      3.5868063      1.4635414      2.1232649      0.099316225    0.099316225    0              0.39847289     0.19906573     1.4264101    
     18600   1.0470063      3.7868416      1.5050715      2.28177        0.097432623    0.097432623    0              0.49516988     0.26902348     1.420144     
     18700   0.96232823     3.9467166      1.3833468      2.5633698      0.095551732    0.095551732    0              0.64237458     0.47185928     1.3535842    
     18800   1.1281806      3.8491197      1.6217596      2.2273601      0.095670688    0.095670688    0              0.40817265     0.42029854     1.3032182    
     18900   1.056285       3.7382785      1.5184098      2.2198688      0.10181465     0.10181465     0              0.32084663     0.3748948      1.4223127    
     19000   0.92290964     4.0121274      1.3266826      2.6854448      0.11306685     0.11306685     0              0.42183078     0.60372114     1.546826     
     19100   0.99786722     3.8079124      1.4344341      2.3734783      0.10967355     0.10967355     0              0.52892148     0.27470413     1.4601791    
     19200   1.2028257      4.4801148      1.7290619      2.7510528      0.10811523     0.10811523     0              0.75062178     0.42618414     1.4661317    
     19300   1.1615991      4.6662894      1.6697988      2.9964906      0.11665675     0.11665675     0              0.5574541      0.72805692     1.5943228    
     19400   1.4193707      4.8891921      2.0403454      2.8488466      0.12405771     0.12405771     0              0.6046483      0.44780652     1.6723341    
     19500   1.3723968      4.5555306      1.9728203      2.5827103      0.11586162     0.11586162     0              0.54924074     0.37931888     1.538289     
     19600   1.2093847      4.2155244      1.7384904      2.477034       0.10857162     0.10857162     0              0.37348957     0.42963992     1.5653328    
     19700   1.2247767      4.4310046      1.7606164      2.6703882      0.093899531    0.093899531    0              0.83671658     0.25524738     1.4845247    
     19800   1.1432001      4.6261026      1.6433502      2.9827524      0.08640949     0.08640949     0              0.82007412     0.57291885     1.5033499    
     19900   0.92664392     4.0961733      1.3320506      2.7641227      0.09322739     0.09322739     0              0.63977737     0.4465209      1.584597     
     20000   1.1156289      4.2075271      1.6037165      2.6038106      0.10160144     0.10160144     0              0.52285585     0.44616251     1.5331908    
     20100   0.98060103     3.8017059      1.409614       2.3920919      0.1081835      0.1081835      0              0.46090152     0.35786957     1.4651373    
     20200   0.80469765     3.5765652      1.1567529      2.4198123      0.11056245     0.11056245     0              0.35025456     0.53079927     1.428196     
     20300   1.0660055      3.9198394      1.5323828      2.3874565      0.12282925     0.12282925     0              0.44789976     0.48674004     1.3299875    
     20400   0.96103742     4.0934941      1.3814913      2.7120028      0.12265413     0.12265413     0              0.54274112     0.53693252     1.509675     
     20500   1.060519       3.9633245      1.524496       2.4388285      0.12048074     0.12048074     0              0.49174207     0.27293098     1.5536747    
     20600   0.94108491     3.7799011      1.3528096      2.4270916      0.12643793     0.12643793     0              0.37161668     0.37865465     1.5503823    
     20700   0.86561552     4.028023       1.2443223      2.7837007      0.14122135     0.14122135     0              0.62858924     0.61387524     1.4000149    
     20800   0.93909116     3.8968176      1.3499435      2.5468741      0.13709116     0.13709116     0              0.43784203     0.46569148     1.5062494    
     20900   1.0417793      3.8522341      1.4975577      2.3546763      0.12910731     0.12910731     0              0.45517802     0.38870885     1.3816821    
     21000   0.8022438      4.0075466      1.1532255      2.8543211      0.1322903      0.1322903      0              0.82413023     0.41282114     1.4850794    
     21100   0.93054826     4.2999777      1.3376631      2.9623146      0.12038426     0.12038426     0              0.59009358     0.45413257     1.7977042    
     21200   0.95616412     4.1015606      1.3744859      2.7270747      0.10925524     0.10925524     0              0.56477507     0.62194231     1.4311021    
     21300   1.04051        3.8802246      1.4957332      2.3844914      0.10443534     0.10443534     0              0.58461475     0.16388326     1.5315581    
     21400   0.8299965      3.8187365      1.19312        2.6256165      0.10075179     0.10075179     0              0.69949194     0.26484008     1.5605327    
     21500   1.1938655      4.5256059      1.7161817      2.8094242      0.100182       0.100182       0              0.60201741     0.63330918     1.4739156    
     21600   0.86191006     4.6210653      1.2389957      3.3820696      0.094082723    0.094082723    0              1.1952013      0.55687517     1.5359104    
     21700   1.0362751      4.3088703      1.4896454      2.8192249      0.10194669     0.10194669     0              0.76692855     0.4706767      1.4796729    
     21800   0.92206308     3.6934291      1.3254657      2.3679634      0.11028068     0.11028068     0              0.55788988     0.34855448     1.3512384    
     21900   0.89439048     3.4717309      1.2856863      2.1860446      0.12454068     0.12454068     0              0.44079074     0.21120092     1.4095122    
     22000   0.79899996     3.7188063      1.1485624      2.5702438      0.13286987     0.13286987     0              0.49456743     0.51257153     1.430235     
     22100   1.3073501      4.2498196      1.8793158      2.3705038      0.12288385     0.12288385     0              0.45591854     0.35666202     1.4350394    
     22200   1.0148461      4.0519674      1.4588413      2.5931261      0.11654446     0.11654446     0              0.44717747     0.62025261     1.4091516    
     22300   1.153345       4.075543       1.6579334      2.4176096      0.11742731     0.11742731     0              0.36906577     0.5012406      1.4298759    
     22400   0.93974045     3.8473431      1.3508769      2.4964662      0.11613564     0.11613564     0              0.31614073     0.57940007     1.4847897    
     22500   1.2933373      4.2617549      1.8591723      2.4025826      0.12198593     0.12198593     0              0.32138023     0.49367081     1.4655456    
     22600   1.3961411      4.4709992      2.0069528      2.4640464      0.13325759     0.13325759     0              0.46833566     0.35583477     1.5066184    
     22700   1.1948426      4.1958152      1.7175862      2.478229       0.14233547     0.14233547     0              0.44020285     0.48318492     1.4125057    
     22800   0.75407475     3.8494973      1.0839824      2.7655149      0.13806584     0.13806584     0              0.38143599     0.53199509     1.714018     
     22900   0.97593464     3.9995655      1.402906       2.5966595      0.13892267     0.13892267     0              0.41350115     0.37085559     1.6733801    
     23000   0.74162479     3.9577125      1.0660856      2.8916269      0.14423787     0.14423787     0              0.45393597     0.87418398     1.4192691    
     23100   1.1333933      4.1411675      1.6292529      2.5119146      0.14299518     0.14299518     0              0.30033974     0.50653716     1.5620425    
     23200   1.1290383      4.3962222      1.6229926      2.7732296      0.14397192     0.14397192     0              0.6417094      0.43235383     1.5551944    
     23300   0.93119777     4.1617157      1.3385968      2.8231189      0.1396026      0.1396026      0              0.5962719      0.4560896      1.6311548    
     23400   1.1423352      4.2265022      1.6421069      2.5843953      0.14207057     0.14207057     0              0.64933611     0.31285968     1.4801289    
     23500   1.1632279      3.9448203      1.6721401      2.2726802      0.13621137     0.13621137     0              0.34223175     0.31309714     1.4811399    
     23600   0.8050744      3.5022796      1.1572944      2.3449852      0.12423709     0.12423709     0              0.33008626     0.36723042     1.5234314    
     23700   0.90499052     3.3230612      1.3009239      2.0221373      0.11821535     0.11821535     0              0.19847245     0.28192719     1.4235223    
     23800   0.79936437     3.4583162      1.1490863      2.30923        0.11808567     0.11808567     0              0.36561367     0.40208191     1.4234487    
     23900   0.89860999     3.8168061      1.2917519      2.5250542      0.11316847     0.11316847     0              0.5542905      0.3894581      1.4681372    
     24000   0.91826475     3.7324404      1.3200056      2.4124348      0.12261592     0.12261592     0              0.46151724     0.36879541     1.4595062    
     24100   1.2838823      4.1185955      1.8455808      2.2730147      0.11578594     0.11578594     0              0.34995695     0.39739366     1.4098782    
     24200   1.2106125      4.0929784      1.7402554      2.3527229      0.11917036     0.11917036     0              0.44281198     0.31829771     1.4724429    
     24300   0.8791679      3.7001843      1.2638039      2.4363804      0.11543911     0.11543911     0              0.34608357     0.4805153      1.4943425    
     24400   1.1078148      3.8332444      1.5924838      2.2407606      0.11114002     0.11114002     0              0.44614634     0.2538915      1.4295827    
     24500   0.98999479     4.163532       1.4231175      2.7404145      0.10944923     0.10944923     0              0.66332199     0.44454763     1.5230956    
     24600   0.84032706     3.7920586      1.2079702      2.5840885      0.11548311     0.11548311     0              0.4663603      0.44715463     1.5550904    
     24700   0.92925133     4.0017502      1.3357988      2.6659514      0.11622149     0.11622149     0              0.48755173     0.60219684     1.4599813    
     24800   1.0965243      4.0862275      1.5762537      2.5099738      0.12347617     0.12347617     0              0.39769708     0.47833656     1.510464     
     24900   1.0586631      4.1173936      1.5218282      2.5955655      0.12489785     0.12489785     0              0.59596715     0.41195777     1.4627427    
     25000   1.1753331      4.0519525      1.6895413      2.3624112      0.13098435     0.13098435     0              0.41504033     0.36951586     1.4468707    
     25100   0.92796091     3.8941454      1.3339438      2.5602016      0.11742658     0.11742658     0              0.57235077     0.46437902     1.4060452    
     25200   0.9454347      3.8507003      1.3590624      2.491638       0.1128222      0.1128222      0              0.50471944     0.3800607      1.4940356    
     25300   0.66845717     3.7991518      0.96090718     2.8382446      0.10593208     0.10593208     0              0.71909339     0.50302099     1.5101982    
     25400   0.92740408     3.8319246      1.3331434      2.4987812      0.10276624     0.10276624     0              0.65856041     0.2231011      1.5143534    
     25500   1.0411499      3.7760045      1.496653       2.2793515      0.099193976    0.099193976    0              0.41823706     0.29842091     1.4634995    
     25600   0.97032485     4.0387156      1.394842       2.6438736      0.099545565    0.099545565    0              0.68785835     0.38397468     1.472495     
     25700   0.83103351     4.0599896      1.1946107      2.8653789      0.10357715     0.10357715     0              0.72609669     0.56446451     1.4712406    
     25800   0.9679203      3.6183821      1.3913854      2.2269967      0.10827065     0.10827065     0              0.32210681     0.41653678     1.3800824    
     25900   0.93116077     3.3842254      1.3385436      2.0456818      0.11474        0.11474        0              0.29717901     0.23580911     1.3979537    
     26000   1.0168873      3.9824743      1.4617755      2.5206989      0.11828211     0.11828211     0              0.40036942     0.59971074     1.4023366    
     26100   0.83737663     3.6016438      1.2037289      2.3979149      0.11277493     0.11277493     0              0.49534534     0.31816302     1.4716316    
     26200   0.76104875     3.8569903      1.0940076      2.7629827      0.11294036     0.11294036     0              0.4075847      0.57860428     1.6638534    
     26300   1.180025       4.0999631      1.696286       2.4036771      0.10540961     0.10540961     0              0.33262282     0.58880389     1.3768408    
     26400   0.98738602     3.780666       1.4193674      2.3612987      0.10292543     0.10292543     0              0.50098969     0.2281094      1.5292741    
     26500   0.80283805     3.9069882      1.1540797      2.7529085      0.093682708    0.093682708    0              0.57635788     0.71149163     1.3713763    
     26600   1.0328291      4.0029786      1.4846918      2.5182868      0.092903424    0.092903424    0              0.54301783     0.52956191     1.3528037    
     26700   1.1364197      4.2109946      1.6336033      2.5773913      0.085008106    0.085008106    0              0.64811659     0.32055456     1.5237121    
     26800   1.0307871      3.9770166      1.4817565      2.4952601      0.081475042    0.081475042    0              0.67313668     0.34975195     1.3908964    
     26900   0.91884553     3.9957018      1.3208405      2.6748614      0.095701031    0.095701031    0              0.53157413     0.45651289     1.5910733    
     27000   1.1160529      4.0632334      1.6043261      2.4589073      0.11264703     0.11264703     0              0.4122185      0.46852918     1.4655126    
     27100   1.11684        4.1302691      1.6054575      2.5248116      0.10950904     0.10950904     0              0.4521209      0.53232754     1.4308542    
     27200   1.0260977      3.8179456      1.4750155      2.3429301      0.11249041     0.11249041     0              0.46235996     0.31492722     1.4531525    
     27300   1.1880746      3.9154888      1.7078572      2.2076316      0.10156816     0.10156816     0              0.51043496     0.15700034     1.4386282    
     27400   1.0703026      3.882049       1.53856        2.343489       0.099878986    0.099878986    0              0.48643023     0.38069616     1.3764836    
     27500   0.98660466     3.6912528      1.4182442      2.2730086      0.10258749     0.10258749     0              0.3990975      0.34722261     1.424101     
     27600   0.8961917      3.5684959      1.2882756      2.2802203      0.10808876     0.10808876     0              0.38911654     0.24190653     1.5411085    
     27700   0.80171258     3.7119189      1.1524618      2.559457       0.11277281     0.11277281     0              0.4378493      0.43366034     1.5751746    
     27800   1.0482591      4.033928       1.5068725      2.5270555      0.11025613     0.11025613     0              0.57661896     0.30793905     1.5322414    
     27900   0.9818954      4.0068907      1.4114746      2.595416       0.096127439    0.096127439    0              0.56563801     0.36822656     1.565424     
     28000   1.0752311      3.9837256      1.5456447      2.438081       0.0995807      0.0995807      0              0.55418875     0.39630572     1.3880058    
     28100   0.84164808     3.8024314      1.2098691      2.5925623      0.10042874     0.10042874     0              0.77417809     0.32126886     1.3966866    
     28200   0.98449288     3.7861768      1.4152085      2.3709682      0.10593189     0.10593189     0              0.55199599     0.33874224     1.3742981    
     28300   1.1870316      4.2150199      1.7063579      2.508662       0.11276547     0.11276547     0              0.63044893     0.28038943     1.4850582    
     28400   0.86279034     4.1986309      1.2402611      2.9583698      0.11883138     0.11883138     0              0.73893189     0.55080046     1.5498061    
     28500   0.95867149     3.9611544      1.3780903      2.5830641      0.12141777     0.12141777     0              0.42893856     0.535133       1.4975748    
     28600   0.840799       3.6508286      1.2086486      2.44218        0.12355022     0.12355022     0              0.46086455     0.43833548     1.4194298    
     28700   0.86056829     3.4562586      1.2370669      2.2191917      0.12180756     0.12180756     0              0.51591581     0.19921792     1.3822504    
     28800   1.0316818      4.1658675      1.4830426      2.682825       0.13165652     0.13165652     0              0.68296721     0.448259       1.4199422    
     28900   1.1189862      3.7668033      1.6085426      2.1582607      0.11954043     0.11954043     0              0.32109205     0.21700429     1.500624     
     29000   1.0829806      4.1087552      1.5567846      2.5519707      0.10843976     0.10843976     0              0.5563133      0.47383697     1.4133806    
     29100   0.87639337     4.0548312      1.2598155      2.7950157      0.11518114     0.11518114     0              0.91361623     0.32570332     1.440515     
     29200   1.1094236      4.4683292      1.5947964      2.8735328      0.10723235     0.10723235     0              0.84250923     0.52687846     1.3969127    
     29300   1.1320514      4.0950885      1.6273239      2.4677646      0.10806053     0.10806053     0              0.42311463     0.4917934      1.4447961    
     29400   1.1957155      4.0314723      1.718841       2.3126313      0.10879433     0.10879433     0              0.42660598     0.39214854     1.3850825    
     29500   0.79345208     4.1183715      1.1405874      2.9777842      0.10812995     0.10812995     0              0.81642473     0.41371431     1.6395152    
     29600   1.059408       4.6255843      1.522899       3.1026853      0.1188495      0.1188495      0              0.8717471      0.48938088     1.6227079    
     29700   0.92582413     4.3031399      1.3308722      2.9722677      0.12849732     0.12849732     0              0.59895132     0.6655838      1.5792353    
     29800   1.0380073      3.9485221      1.4921354      2.4563867      0.12621551     0.12621551     0              0.42705422     0.47912201     1.423995     
     29900   0.81005614     3.7766905      1.1644557      2.6122348      0.12550506     0.12550506     0              0.45651763     0.36982739     1.6603847    
     30000   1.0622325      4.0092945      1.5269592      2.4823353      0.12927759     0.12927759     0              0.43464843     0.56574614     1.3526632    
     30100   1.1630871      4.5010816      1.6719377      2.8291439      0.11886038     0.11886038     0              0.524846       0.52675026     1.6586873    
     30200   1.018286       4.372741       1.4637862      2.9089548      0.10567024     0.10567024     0              0.76980522     0.22576729     1.807712     
     30300   1.2594503      4.3460561      1.8104598      2.5355963      0.12118056     0.12118056     0              0.3181693      0.6446429      1.4516035    
     30400   1.1308433      3.9867916      1.6255873      2.3612043      0.12717572     0.12717572     0              0.30266226     0.50833115     1.4230351    
     30500   0.94448741     3.9455455      1.3577007      2.5878448      0.13742887     0.13742887     0              0.41395019     0.6068073      1.4296584    
     30600   1.2304781      4.3056512      1.7688123      2.5368388      0.1484419      0.1484419      0              0.47943235     0.43051329     1.4784513    
     30700   1.1820337      4.0049781      1.6991734      2.3058047      0.13831926     0.13831926     0              0.19534018     0.40036099     1.5717842    
     30800   1.0907761      4.114152       1.5679907      2.5461612      0.13444821     0.13444821     0              0.3696092      0.57431197     1.4677919    
     30900   0.90753596     3.8973626      1.3045829      2.5927796      0.12604998     0.12604998     0              0.42577953     0.48908615     1.551864     
     31000   0.75670642     3.4833658      1.0877655      2.3956004      0.10975111     0.10975111     0              0.48279341     0.3129413      1.4901145    
     31100   0.83177896     3.4684329      1.1956823      2.2727506      0.11349716     0.11349716     0              0.35612956     0.39007835     1.4130455    
     31200   0.94357784     3.7838392      1.3563931      2.427446       0.11916332     0.11916332     0              0.32349827     0.4305712      1.5542132    
     31300   0.9113448      3.8541466      1.3100582      2.5440884      0.13045041     0.13045041     0              0.4546693      0.58337952     1.3755892    
     31400   1.0355911      4.4479256      1.4886622      2.9592634      0.12609783     0.12609783     0              0.85385799     0.22408231     1.7552252    
     31500   1.4103693      4.5755506      2.0274058      2.5481448      0.12093211     0.12093211     0              0.37468475     0.57115424     1.4813737    
     31600   0.81752227     4.0456276      1.1751883      2.8704393      0.12502482     0.12502482     0              0.66876422     0.55979024     1.51686      
     31700   0.82643628     3.813751       1.1880021      2.6257489      0.11973189     0.11973189     0              0.71025012     0.25996946     1.5357974    
     31800   0.90590937     3.709649       1.3022447      2.4074043      0.12859568     0.12859568     0              0.45712613     0.3051346      1.5165479    
     31900   1.2768242      4.338361       1.8354348      2.5029262      0.15030588     0.15030588     0              0.4744803      0.36283243     1.5153076    
     32000   1.0872486      4.4853035      1.5629199      2.9223836      0.14434651     0.14434651     0              0.41706661     0.49892788     1.8620426    
     32100   1.0741868      4.1314178      1.5441435      2.5872743      0.14288143     0.14288143     0              0.36768328     0.45084596     1.6258636    
     32200   1.0044907      3.8647482      1.4439554      2.4207928      0.13390117     0.13390117     0              0.28255475     0.38700256     1.6173343    
     32300   0.73497034     3.4404597      1.0565199      2.3839399      0.12621953     0.12621953     0              0.40651009     0.3840588      1.4671515    
     32400   0.96265754     3.8118674      1.3838202      2.4280472      0.11234263     0.11234263     0              0.57859883     0.35380658     1.3832991    
     32500   1.305387       4.6242401      1.8764939      2.7477462      0.10573922     0.10573922     0              0.66471851     0.51983905     1.4574495    
     32600   1.2280558      4.3322666      1.7653301      2.5669365      0.10356868     0.10356868     0              0.60006856     0.36594566     1.4973536    
     32700   1.0539202      4.3388518      1.5150103      2.8238415      0.099269632    0.099269632    0              0.72273675     0.51136676     1.4904684    
     32800   1.0699997      4.0329934      1.5381246      2.4948689      0.10012253     0.10012253     0              0.61609842     0.36870083     1.4099471    
     32900   0.82823034     4.0811467      1.1905811      2.8905656      0.09991162     0.09991162     0              0.81461647     0.53980891     1.4362286    
     33000   0.98165151     3.8094699      1.4111241      2.3983458      0.10356963     0.10356963     0              0.50010191     0.31635957     1.4783147    
     33100   1.0278695      3.7568576      1.4775624      2.2792952      0.11013047     0.11013047     0              0.36812392     0.40509419     1.3959466    
     33200   1.1316875      3.9703291      1.6268008      2.3435283      0.11079425     0.11079425     0              0.30561839     0.46166577     1.4654499    
     33300   0.92302774     3.6306349      1.3268524      2.3037825      0.1180444      0.1180444      0              0.50955177     0.23626179     1.4399246    
     33400   0.97395596     3.9000756      1.4000617      2.5000139      0.12917482     0.12917482     0              0.47245243     0.48598344     1.4124032    
     33500   0.90484402     4.0738959      1.3007133      2.7731826      0.12402408     0.12402408     0              0.54975268     0.49192813     1.6074777    
     33600   0.82506845     3.4047726      1.1860359      2.2187367      0.11297562     0.11297562     0              0.33739469     0.34045123     1.4279152    
     33700   0.97801909     3.927748       1.4059024      2.5218456      0.12014921     0.12014921     0              0.41318344     0.33607739     1.6524356    
     33800   0.87718259     3.8801668      1.26095        2.6192168      0.12875322     0.12875322     0              0.3967543      0.59274928     1.50096      
     33900   1.1970581      3.8358757      1.720771       2.1151047      0.12547331     0.12547331     0              0.28668496     0.31891005     1.3840364    
     34000   1.3849817      4.2576186      1.9909112      2.2667074      0.12691154     0.12691154     0              0.33220153     0.37272119     1.4348731    
     34100   1.015452       3.5776396      1.4597122      2.1179274      0.12473533     0.12473533     0              0.29832355     0.30035499     1.3945135    
     34200   1.1237814      3.978652       1.6154357      2.3632163      0.11817558     0.11817558     0              0.43700604     0.30102432     1.5070103    
     34300   0.88048269     3.9829183      1.2656939      2.7172244      0.11584322     0.11584322     0              0.45188846     0.56212614     1.5873666    
     34400   1.3004625      4.2581633      1.8694149      2.3887484      0.12705375     0.12705375     0              0.40906327     0.38640881     1.4662226    
     34500   0.98505837     3.8755701      1.4160214      2.4595487      0.13531465     0.13531465     0              0.31745247     0.4615456      1.545236     
     34600   1.0642795      3.9368672      1.5299018      2.4069654      0.12718032     0.12718032     0              0.2753698      0.3825498      1.6218655    
     34700   1.0990675      3.7157578      1.5799095      2.1358482      0.12181649     0.12181649     0              0.22893956     0.31296922     1.4721229    
     34800   0.98352245     3.8216035      1.4138135      2.4077899      0.10536219     0.10536219     0              0.54346588     0.2894718      1.4694901    
     34900   0.95817068     3.6599097      1.3773704      2.2825393      0.11635386     0.11635386     0              0.45557479     0.27499138     1.4356193    
     35000   0.97503566     3.7079691      1.4016138      2.3063554      0.12407288     0.12407288     0              0.45380704     0.31751083     1.4109646    
     35100   1.0973527      3.9756991      1.5774445      2.3982546      0.14578407     0.14578407     0              0.40602654     0.45396619     1.3924778    
     35200   0.96513143     3.8760052      1.3873764      2.4886288      0.14765075     0.14765075     0              0.41403713     0.41167697     1.5152639    
     35300   1.1307144      4.0535337      1.6254019      2.4281317      0.13379399     0.13379399     0              0.40577386     0.33133032     1.5572336    
     35400   0.92401047     4.1104405      1.328265       2.7821754      0.1194097      0.1194097      0              0.43216699     0.62224047     1.6083583    
     35500   0.97556706     4.2306325      1.4023776      2.8282549      0.11511357     0.11511357     0              0.70860727     0.41842342     1.5861106    
     35600   1.1041912      4.2695411      1.5872748      2.6822663      0.10615597     0.10615597     0              0.650614       0.55750452     1.3679918    
     35700   0.9937335      4.132055       1.4284919      2.7035631      0.12737471     0.12737471     0              0.55926963     0.6135613      1.4033574    
     35800   1.0638396      3.9806422      1.5292694      2.4513727      0.15246577     0.15246577     0              0.46690397     0.43261433     1.3993887    
     35900   1.271034       4.6269253      1.8271114      2.7998139      0.1489008      0.1489008      0              0.48055128     0.46117831     1.7091835    
     36000   0.96037983     4.1573232      1.380546       2.7767772      0.14558399     0.14558399     0              0.3661906      0.48483604     1.7801666    
     36100   0.80509039     3.7979568      1.1573174      2.6406393      0.13164782     0.13164782     0              0.49106788     0.43818777     1.5797359    
     36200   0.90891244     3.8007926      1.3065616      2.494231       0.13430092     0.13430092     0              0.59638141     0.24395095     1.5195977    
     36300   1.0440232      3.9424767      1.5007834      2.4416933      0.14216171     0.14216171     0              0.35673319     0.35120345     1.5915949    
     36400   1.1608817      3.9980035      1.6687675      2.329236       0.15291217     0.15291217     0              0.20619948     0.52035117     1.4497731    
     36500   1.029328       3.9237844      1.4796591      2.4441254      0.14421434     0.14421434     0              0.38699157     0.38025667     1.5326628    
     36600   0.95423553     3.7574348      1.3717136      2.3857213      0.14151074     0.14151074     0              0.3609181      0.31942806     1.5638644    
     36700   1.0450617      3.4275792      1.5022761      1.9253031      0.12806953     0.12806953     0              0.23384376     0.24830586     1.315084     
     36800   0.98542461     3.666248       1.4165479      2.2497001      0.1072624      0.1072624      0              0.38208596     0.33059046     1.4297613    
     36900   1.0662466      3.918448       1.5327295      2.3857185      0.10003568     0.10003568     0              0.53843465     0.26481193     1.4824363    
     37000   0.73245143     3.5356242      1.0528989      2.4827253      0.10297393     0.10297393     0              0.44523945     0.49505251     1.4394594    
     37100   0.88506207     3.6195884      1.2722767      2.3473116      0.10905543     0.10905543     0              0.31050893     0.43146464     1.4962826    
     37200   0.86882775     4.2053626      1.2489399      2.9564227      0.12336284     0.12336284     0              0.4205847      0.77988334     1.6325919    
     37300   1.2347587      4.2956114      1.7749656      2.5206459      0.12614958     0.12614958     0              0.53114138     0.41524892     1.448106     
     37400   1.5711202      4.7184654      2.2584852      2.4599801      0.11345015     0.11345015     0              0.27767116     0.66212376     1.4067351    
     37500   1.463126       4.6644848      2.1032437      2.5612411      0.10521016     0.10521016     0              0.4736862      0.4407397      1.541605     
     37600   1.0631255      4.0496285      1.528243       2.5213856      0.10019509     0.10019509     0              0.5732186      0.31072827     1.5372436    
     37700   1.0129444      3.8090846      1.4561076      2.3529769      0.10800182     0.10800182     0              0.58021489     0.26126367     1.4034966    
     37800   0.74913967     3.3453312      1.0768883      2.2684429      0.10713076     0.10713076     0              0.45787998     0.30620875     1.3972235    
     37900   0.77022291     3.4396054      1.1071954      2.3324099      0.10902982     0.10902982     0              0.50223861     0.35335107     1.3677904    
     38000   1.0448394      3.6186354      1.5019566      2.1166789      0.10985122     0.10985122     0              0.31289043     0.28917814     1.4047591    
     38100   1.0079464      3.6572421      1.448923       2.2083191      0.10627784     0.10627784     0              0.45928953     0.23127066     1.411481     
     38200   1.2001774      4.3544009      1.725255       2.629146       0.092150156    0.092150156    0              0.46981075     0.54290724     1.5242778    
     38300   1.0951718      3.916204       1.5743094      2.3418945      0.096334053    0.096334053    0              0.54881724     0.30780875     1.3889345    
     38400   0.7740049      3.777553       1.112632       2.6649209      0.10775112     0.10775112     0              0.56111852     0.51203909     1.4840122    
     38500   0.85968961     3.4386728      1.2358038      2.202869       0.11670248     0.11670248     0              0.41941612     0.21488179     1.4518686    
     38600   0.70751367     3.2560954      1.0170509      2.2390445      0.12254699     0.12254699     0              0.4249943      0.26295185     1.4285514    
     38700   0.85219766     3.520986       1.2250341      2.2959519      0.11666677     0.11666677     0              0.44018679     0.29975562     1.4393427    
     38800   0.94921898     3.7775989      1.3645023      2.4130966      0.1107353      0.1107353      0              0.47129802     0.40775941     1.4233038    
     38900   0.93835055     3.9664651      1.3488789      2.6175861      0.11289026     0.11289026     0              0.40063218     0.55279183     1.5512719    
     39000   1.1507708      4.0881483      1.6542331      2.4339152      0.11581378     0.11581378     0              0.45033047     0.41642844     1.4513425    
     39100   1.2574933      4.2147572      1.8076466      2.4071106      0.11860265     0.11860265     0              0.42726551     0.32003965     1.5412028    
     39200   1.2728641      4.3426391      1.8297422      2.512897       0.12670583     0.12670583     0              0.34130366     0.5093595      1.535528     
     39300   1.0562111      4.2145003      1.5183035      2.6961968      0.13299464     0.13299464     0              0.57314253     0.40350737     1.5865522    
     39400   1.0591957      3.8039527      1.5225939      2.2813588      0.11820193     0.11820193     0              0.41086255     0.33170803     1.4205863    
     39500   0.86743787     3.8169122      1.2469419      2.5699702      0.10794561     0.10794561     0              0.55729884     0.31756423     1.5871616    
     39600   1.3344912      3.9855673      1.9183311      2.0672362      0.11572388     0.11572388     0              0.30042897     0.27355661     1.3775268    
     39700   0.70832939     3.5101941      1.0182235      2.4919705      0.11783245     0.11783245     0              0.31425066     0.54785071     1.5120367    
     39800   0.88745311     3.5677548      1.2757139      2.2920409      0.12190425     0.12190425     0              0.36455223     0.37132411     1.4342603    
     39900   0.86682756     3.5163692      1.2460646      2.2703045      0.12394878     0.12394878     0              0.36364415     0.23903087     1.5436807    
     40000   0.96251039     3.6108646      1.3836087      2.2272559      0.12770286     0.12770286     0              0.31269374     0.24586057     1.5409987    
     40100   1.2271497      4.0914668      1.7640277      2.3274391      0.13851426     0.13851426     0              0.41559185     0.36602364     1.4073094    
     40200   1.1913337      4.0662801      1.7125422      2.3537379      0.13097184     0.13097184     0              0.46374295     0.33050988     1.4285132    
     40300   0.95863535     3.945359       1.3780383      2.5673207      0.12409146     0.12409146     0              0.80298314     0.32105587     1.3191902    
     40400   1.3959468      4.5704047      2.0066736      2.5637311      0.12156384     0.12156384     0              0.6193493      0.44856714     1.3742508    
     40500   1.2241965      4.2666219      1.7597825      2.5068394      0.11250668     0.11250668     0              0.3812295      0.56402498     1.4490783    
     40600   0.70669212     3.9348727      1.0158699      2.9190028      0.11082983     0.11082983     0              0.81905872     0.53621176     1.4529025    
     40700   0.78524114     3.7966822      1.1287841      2.667898       0.11706819     0.11706819     0              0.43878076     0.66222948     1.4498196    
     40800   0.90102929     3.7491409      1.2952296      2.4539113      0.13774433     0.13774433     0              0.3598781      0.49439995     1.4618889    
     40900   0.9182089      3.8014012      1.3199253      2.4814759      0.15149922     0.15149922     0              0.45895434     0.49536555     1.3756568    
     41000   0.88976792     3.8048443      1.2790414      2.525803       0.14619755     0.14619755     0              0.39308201     0.52484239     1.461681     
     41100   1.0793787      3.8438547      1.5516069      2.2922477      0.12409607     0.12409607     0              0.41856884     0.38942686     1.360156     
     41200   1.0246298      3.6923053      1.4729053      2.2193999      0.11283862     0.11283862     0              0.19669233     0.30513163     1.6047373    
     41300   1.1075648      3.7481151      1.5921245      2.1559907      0.12412803     0.12412803     0              0.25655312     0.29395426     1.4813553    
     41400   0.88206552     3.4532092      1.2679692      2.1852401      0.12832371     0.12832371     0              0.28433437     0.33152792     1.4410541    
     41500   0.96968908     3.8752059      1.3939281      2.4812778      0.1251848      0.1251848      0              0.3858868      0.43815088     1.5320553    
     41600   0.76026933     3.6461211      1.0928872      2.553234       0.12284568     0.12284568     0              0.27627904     0.71885294     1.4352563    
     41700   1.0511456      4.0745951      1.5110218      2.5635733      0.11125568     0.11125568     0              0.51947676     0.40314814     1.5296928    
     41800   0.92822667     3.7182056      1.3343258      2.3838798      0.1107893      0.1107893      0              0.59746355     0.28311143     1.3925155    
     41900   1.0064233      3.6850089      1.4467335      2.2382754      0.1222322      0.1222322      0              0.35389933     0.28638122     1.4757626    
     42000   0.91712936     3.7844059      1.3183735      2.4660325      0.13169677     0.13169677     0              0.43875168     0.50584914     1.3897349    
     42100   0.65478883     3.4222979      0.94125895     2.4810389      0.13536907     0.13536907     0              0.29830535     0.4657897      1.5815748    
     42200   0.73417919     3.6563726      1.0553826      2.6009901      0.14177272     0.14177272     0              0.32643997     0.73457454     1.3982028    
     42300   0.99728831     3.7498093      1.4336019      2.3162073      0.13762828     0.13762828     0              0.42807873     0.38953331     1.360967     
     42400   0.90216816     4.0401556      1.2968667      2.7432889      0.12626939     0.12626939     0              0.6573011      0.34819041     1.611528     
     42500   1.3956504      4.5833671      2.0062474      2.5771197      0.11628599     0.11628599     0              0.53963952     0.447215       1.4739792    
     42600   1.2205112      4.5030873      1.7544849      2.7486024      0.11669446     0.11669446     0              0.74078572     0.37597039     1.5151518    
     42700   1.015335       4.346297       1.459544       2.8867529      0.12562239     0.12562239     0              0.56547185     0.53248698     1.6631717    
     42800   1.0069496      4.1821207      1.4474901      2.7346306      0.14990411     0.14990411     0              0.46684104     0.65473063     1.4631548    
     42900   1.0309738      4.1658761      1.4820249      2.6838512      0.1654545      0.1654545      0              0.34086883     0.56799472     1.6095332    
     43000   1.1179079      4.5138165      1.6069927      2.9068238      0.15350492     0.15350492     0              0.39717403     0.53616779     1.819977     
     43100   1.086606       4.2464314      1.5619961      2.6844353      0.14520768     0.14520768     0              0.4136361      0.44269881     1.6828927    
     43200   1.1581285      4.215798       1.6648097      2.5509883      0.13702644     0.13702644     0              0.40511789     0.54688112     1.4619628    
     43300   0.95347521     4.2330748      1.3706206      2.8624542      0.14427771     0.14427771     0              0.65088952     0.58389562     1.4833914    
     43400   1.0917593      4.1366706      1.5694039      2.5672666      0.13247746     0.13247746     0              0.50005443     0.38974048     1.5449943    
     43500   1.019829       4.0357811      1.4660042      2.5697769      0.13031609     0.13031609     0              0.57987133     0.35061782     1.5089717    
     43600   1.226604       4.2448458      1.7632432      2.4816026      0.11925671     0.11925671     0              0.42948555     0.43577273     1.4970876    
     43700   1.0538813      3.7740286      1.5149544      2.2590743      0.11977381     0.11977381     0              0.48113612     0.27409143     1.3840729    
     43800   0.97699328     3.7153044      1.4044278      2.3108765      0.13573759     0.13573759     0              0.37324491     0.33677336     1.4651207    
     43900   1.0027843      3.8739387      1.4415024      2.4324363      0.14645301     0.14645301     0              0.3998662      0.50557763     1.3805394    
     44000   0.87709847     3.8125761      1.2608291      2.5517471      0.1388633      0.1388633      0              0.40082402     0.54926168     1.4627981    
     44100   0.85999491     3.5460563      1.2362427      2.3098136      0.1430346      0.1430346      0              0.44094363     0.27973716     1.4460982    
     44200   1.1350638      3.9102208      1.6316542      2.2785667      0.13616238     0.13616238     0              0.26096808     0.38078207     1.5006541    
     44300   0.9437921      3.9187794      1.3567011      2.5620783      0.12743345     0.12743345     0              0.45512966     0.44231751     1.5371976    
     44400   0.75107612     3.6078296      1.0796719      2.5281577      0.13583199     0.13583199     0              0.39951205     0.57022451     1.4225891    
     44500   1.0335168      3.8981183      1.4856804      2.412438       0.13187879     0.13187879     0              0.47423289     0.43268004     1.3736462    
     44600   0.8689244      3.5287698      1.2490788      2.279691       0.1275412      0.1275412      0              0.24064765     0.39464955     1.5168526    
     44700   0.84447786     3.6241956      1.2139369      2.4102587      0.12449046     0.12449046     0              0.52790511     0.25943774     1.4984254    
     44800   0.90633727     3.3943512      1.3028598      2.0914914      0.12158685     0.12158685     0              0.31944741     0.29980524     1.3506519    
     44900   1.0846644      4.0734147      1.559205       2.5142097      0.11748333     0.11748333     0              0.53351237     0.44341898     1.419795     
     45000   0.98913739     3.9247165      1.421885       2.5028315      0.1183134      0.1183134      0              0.63741787     0.29103095     1.4560693    
     45100   0.89612137     3.6067647      1.2881745      2.3185902      0.12518138     0.12518138     0              0.33448608     0.25644994     1.6024728    
     45200   1.1406112      4.1101301      1.6396286      2.4705014      0.13740781     0.13740781     0              0.46736674     0.42729969     1.4384272    
     45300   0.87910742     3.9425749      1.2637169      2.678858       0.12653865     0.12653865     0              0.43287097     0.56117144     1.558277     
     45400   0.96308831     3.9607761      1.3844394      2.5763367      0.11997292     0.11997292     0              0.48793895     0.51801185     1.450413     
     45500   1.1133127      3.665071       1.6003869      2.0646841      0.10969709     0.10969709     0              0.33257474     0.19623702     1.4261752    
     45600   1.0525391      3.7720024      1.5130249      2.2589775      0.11750948     0.11750948     0              0.2453087      0.34020857     1.5559507    
     45700   1.2260006      4.2040013      1.7623759      2.4416254      0.11660074     0.11660074     0              0.46412857     0.42566287     1.4352333    
     45800   0.9883569      4.0792263      1.420763       2.6584633      0.12441755     0.12441755     0              0.44224285     0.53237146     1.5594314    
     45900   1.0888807      4.030833       1.565266       2.465567       0.11617141     0.11617141     0              0.37528466     0.47042981     1.5036812    
     46000   1.2816159      4.3562908      1.8423229      2.5139679      0.10542176     0.10542176     0              0.4593292      0.36839908     1.5808179    
     46100   1.1711847      3.9150954      1.683578       2.2315174      0.10270808     0.10270808     0              0.34415682     0.45289848     1.331754     
     46200   1.2255618      4.262662       1.7617451      2.5009169      0.098105701    0.098105701    0              0.75879455     0.18800849     1.4560082    
     46300   0.99013443     4.1916517      1.4233182      2.7683334      0.10960032     0.10960032     0              0.84470733     0.41148688     1.4025389    
     46400   1.1738733      4.2339253      1.6874429      2.5464824      0.1164754      0.1164754      0              0.5941636      0.41847657     1.4173668    
     46500   0.95641451     4.1208064      1.3748459      2.7459606      0.12188162     0.12188162     0              0.62491867     0.54241205     1.4567482    
     46600   0.92838037     3.7386319      1.3345468      2.4040851      0.11161784     0.11161784     0              0.49686764     0.35383254     1.4417671    
     46700   0.88160691     3.6293449      1.2673099      2.362035       0.10266        0.10266        0              0.33390659     0.3543175      1.5711509    
     46800   1.0427257      4.3210711      1.4989181      2.8221529      0.10568295     0.10568295     0              0.71052042     0.54632813     1.4596214    
     46900   1.2252006      4.1345539      1.7612258      2.3733281      0.11094879     0.11094879     0              0.36253012     0.44558725     1.454262     
     47000   0.89964226     3.6301413      1.2932358      2.3369055      0.11681251     0.11681251     0              0.50375242     0.32119105     1.3951496    
     47100   1.101376       3.9093194      1.583228       2.3260914      0.11961105     0.11961105     0              0.28378738     0.50094941     1.4217436    
     47200   0.85416622     3.5093745      1.2278639      2.2815105      0.11408064     0.11408064     0              0.50264785     0.34069878     1.3240832    
     47300   1.0541022      3.6307861      1.5152719      2.1155142      0.11051872     0.11051872     0              0.35047004     0.34572914     1.3087963    
     47400   1.0675903      3.753312       1.5346611      2.2186509      0.11446505     0.11446505     0              0.32725346     0.36559825     1.4113341    
     47500   0.99791571     3.7628973      1.4345038      2.3283935      0.11641288     0.11641288     0              0.4288861      0.27319295     1.5099016    
     47600   1.0032805      3.7415863      1.4422157      2.2993706      0.1248606      0.1248606      0              0.41210238     0.29707375     1.4653339    
     47700   1.0873151      3.900431       1.5630154      2.3374155      0.11907547     0.11907547     0              0.32635718     0.4563057      1.4356772    
     47800   0.94735302     3.7155266      1.36182        2.3537067      0.11411791     0.11411791     0              0.59222798     0.20975711     1.4376037    
     47900   1.0363297      3.760501       1.4897239      2.2707771      0.10798737     0.10798737     0              0.48637201     0.31568415     1.3607336    
     48000   0.78571577     3.4125391      1.1294664      2.2830727      0.10825283     0.10825283     0              0.55341611     0.30312942     1.3182744    
     48100   0.93546315     3.8906476      1.3447283      2.5459193      0.11667272     0.11667272     0              0.66466368     0.34622173     1.4183612    
     48200   1.0451911      4.1350351      1.5024622      2.6325728      0.12422173     0.12422173     0              0.42463403     0.65255974     1.4311573    
     48300   1.0377409      3.7940941      1.4917526      2.3023415      0.11460736     0.11460736     0              0.3392817      0.37059595     1.4778565    
     48400   0.97901236     3.8080814      1.4073303      2.4007511      0.1130611      0.1130611      0              0.36121075     0.3139245      1.6125548    
     48500   0.9826575      3.8313156      1.4125702      2.4187455      0.12259412     0.12259412     0              0.4438632      0.43876709     1.4135211    
     48600   1.1027033      4.0482176      1.585136       2.4630815      0.13009312     0.13009312     0              0.35135645     0.5665634      1.4150685    
     48700   1.2133484      4.5101439      1.7441883      2.7659556      0.12985671     0.12985671     0              0.71483153     0.40126163     1.5200057    
     48800   1.2368002      4.4639379      1.7779003      2.6860376      0.12515403     0.12515403     0              0.57947565     0.28060771     1.7008002    
     48900   1.1470571      4.5549122      1.6488945      2.9060177      0.13837812     0.13837812     0              0.77277572     0.39737105     1.5974928    
     49000   1.0753672      4.0298187      1.5458404      2.4839783      0.13681809     0.13681809     0              0.3090961      0.52396965     1.5140945    
     49100   1.1106999      4.5371831      1.5966311      2.9405521      0.13492422     0.13492422     0              0.69122497     0.56933243     1.5450704    
     49200   1.219662       4.6021226      1.7532642      2.8488584      0.12962985     0.12962985     0              0.55176759     0.77111376     1.3963472    
     49300   1.0463575      4.4308377      1.5041389      2.9266988      0.12081981     0.12081981     0              0.79605277     0.45800902     1.5518172    
     49400   1.3015789      4.4207188      1.8710196      2.5496992      0.10800396     0.10800396     0              0.57724929     0.48523339     1.3792126    
     49500   1.1362112      4.4027472      1.6333036      2.7694436      0.10042337     0.10042337     0              0.55004409     0.61645411     1.5025221    
     49600   1.0618975      4.4024454      1.5264777      2.8759677      0.089925074    0.089925074    0              0.69532126     0.36303806     1.7276833    
     49700   1.054844       3.7387959      1.5163383      2.2224576      0.093639431    0.093639431    0              0.4206003      0.29229849     1.4159194    
     49800   1.0637687      3.5998316      1.5291675      2.0706641      0.10053585     0.10053585     0              0.36961996     0.16951919     1.4309891    
     49900   1.0518652      3.8299611      1.5120562      2.3179049      0.11090016     0.11090016     0              0.4052563      0.30034028     1.5014082    
     50000   1.0563458      4.236254       1.5184971      2.7177569      0.11642531     0.11642531     0              0.61554239     0.54006788     1.4457213    
     50002   1.0432612      4.1854634      1.499688       2.6857753      0.11644108     0.11644108     0              0.61545139     0.51705563     1.4368272    
Loop time of 0.536505 on 8 procs for 50000 steps with 24 atoms

Performance: 40260581.094 tau/day, 93195.790 timesteps/s, 2.237 Matom-step/s
773.7% CPU use with 1 MPI tasks x 8 OpenMP threads

MPI task timing breakdown:
Section |  min time  |  avg time  |  max time  |%varavg| %total
---------------------------------------------------------------
Pair    | 0.090243   | 0.090243   | 0.090243   |   0.0 | 16.82
Bond    | 0.16657    | 0.16657    | 0.16657    |   0.0 | 31.05
Neigh   | 0.065164   | 0.065164   | 0.065164   |   0.0 | 12.15
Comm    | 0.008252   | 0.008252   | 0.008252   |   0.0 |  1.54
Output  | 0.0097471  | 0.0097471  | 0.0097471  |   0.0 |  1.82
Modify  | 0.083107   | 0.083107   | 0.083107   |   0.0 | 15.49
Other   |            | 0.1134     |            |       | 21.14

Nlocal:             24 ave          24 max          24 min
Histogram: 1 0 0 0 0 0 0 0 0 0
Nghost:              1 ave           1 max           1 min
Histogram: 1 0 0 0 0 0 0 0 0 0
Neighs:              0 ave           0 max           0 min
Histogram: 1 0 0 0 0 0 0 0 0 0

Total # of neighbors = 0
Ave neighs/atom = 0
Ave special neighs/atom = 5.5
Neighbor list builds = 4719
Dangerous builds = 0
System init for write_restart ...
Generated 0 of 0 mixed pair_coeff terms from geometric mixing rule
System init for write_data ...
Generated 0 of 0 mixed pair_coeff terms from geometric mixing rule
Total wall time: 0:00:00
