LAMMPS data file via write_data, version 29 Aug 2024, timestep = 10000000, units = lj

24 atoms
1 atom types
23 bonds
1 bond types
22 angles
1 angle types
21 dihedrals
1 dihedral types

-13.5 36.5 xlo xhi
-25 25 ylo yhi
-25 25 zlo zhi

Masses

1 1

Bond Coeffs # harmonic

1 30 1.4

Angle Coeffs # harmonic

1 18 140

Dihedral Coeffs # multi/harmonic

1 2 2 2 2 2

Atoms # full

11 1 1 -2 31.534183358096154 -17.866135931961885 4.8121372261764295 -1 -1 3
10 1 1 -2 32.51114678717702 -18.140694375426136 4.253625020416604 -1 -1 3
8 1 1 -2 34.908924161678215 -18.994252314381733 4.791332289003759 -1 -1 3
9 1 1 -2 33.71284328339995 -18.938670211613562 4.752771708038339 -1 -1 3
12 1 1 -2 30.20717762153407 -17.216456645007153 5.082662580895487 -1 -1 3
5 1 1 -2 -12.709549764058025 -18.134373216476856 7.514424745479038 0 -1 3
6 1 1 -2 -13.188123558695532 -18.64960183369492 6.278626426301919 0 -1 3
4 1 1 -2 -11.359495473365147 -17.41936228337869 7.859593543984475 0 -1 3
3 1 1 -2 -10.013863318607518 -17.471468498795453 8.454584027200317 0 -1 3
7 1 1 -2 35.89173930998524 -19.066352788972317 5.787561474648058 -1 -1 3
2 1 1 -2 -8.839804662871112 -16.978976199010095 8.121162058951453 0 -1 3
1 1 1 -2 -7.815885199910074 -16.819106730087523 8.891159991745436 0 -1 3
14 1 1 -2 29.328663004664943 -15.065195153375187 6.951154024432438 -1 -1 3
13 1 1 -2 29.80172991002833 -16.276735997926657 6.438236063969804 -1 -1 3
15 1 1 -2 29.49971206250894 -14.091362734355275 8.253968860737306 -1 -1 3
16 1 1 -2 29.633398687729123 -12.704339781152713 8.797637293416164 -1 -1 3
18 1 1 -2 28.523031580843245 -11.1415685040731 10.433729047046786 -1 -1 3
19 1 1 -2 28.62867763419911 -10.098666200458226 11.366834165478176 -1 -1 3
17 1 1 -2 29.22615268486512 -12.193753375610992 10.058853114318312 -1 -1 3
20 1 1 -2 28.14688689331546 -9.531652131345604 12.530505722113807 -1 -1 3
21 1 1 -2 28.288533612180895 -8.584344442394558 13.362322720192068 -1 -1 3
22 1 1 -2 27.9000620700897 -7.259597053320373 13.91091880486274 -1 -1 3
23 1 1 -2 28.300223103111474 -5.858360684156881 13.986572675014807 -1 -1 3
24 1 1 -2 28.81786660289427 -4.879246887023414 14.987933672751677 -1 -1 3

Velocities

11 -0.8892152346306396 1.3697789374956528 0.6139326716812626
10 0.5877781966760158 0.1887925211652654 0.8319612863020849
8 -0.7184665344229497 0.16756364420008063 1.2887474113325508
9 0.9834094482814256 -1.1703661563115426 0.6879141430791733
12 0.06418486457992943 0.26443370821360196 0.18013785035991958
5 0.5768434036709654 -0.9593678285822276 -0.6672215493066027
6 1.5271105463211445 -0.8756681290935471 2.1902132310585167
4 0.05639882168604031 -1.3010275163593983 -0.33433997881958494
3 -0.8810386358766903 -0.3944452230774552 0.4034486507891584
7 -1.3161443394945755 -0.12240312394377423 1.9803254434808564
2 0.7205289266830124 1.9858579965834118 1.2315701934246255
1 1.0825942168367833 -0.4488648885309635 -0.0990476156881796
14 -0.1508452995160764 0.18039223445160574 -0.3090045393235974
13 0.7188228556225958 0.6893232527768001 -1.860533414933212
15 -1.6858644762321717 0.9631415425545405 0.8130373675397639
16 0.40540256670712516 -0.4089092858567038 -1.50325471761932
18 2.647598727032443 -0.3095238440274771 -0.16164477682025544
19 0.421960022995731 -0.27421807162427175 2.1080364451281306
17 -0.7775532430912989 1.0628854976558746 -0.0856737695132608
20 2.4177678253568926 -1.014356630567416 -0.6396815968932524
21 -0.5904604139973361 0.4426797441582586 -0.105464280908537
22 -0.21267895428564765 0.7499447788038391 -0.6853308423034512
23 -0.09841947125093017 0.5271172063616436 0.4891629391904194
24 0.16744361262725 -0.3914537652216773 1.2480553863520136

Bonds

1 1 11 12
2 1 10 11
3 1 8 9
4 1 9 10
5 1 12 13
6 1 5 6
7 1 6 7
8 1 4 5
9 1 3 4
10 1 7 8
11 1 2 3
12 1 1 2
13 1 14 15
14 1 13 14
15 1 15 16
16 1 16 17
17 1 18 19
18 1 19 20
19 1 17 18
20 1 20 21
21 1 21 22
22 1 22 23
23 1 23 24

Angles

1 1 10 11 12
2 1 9 10 11
3 1 7 8 9
4 1 8 9 10
5 1 11 12 13
6 1 4 5 6
7 1 5 6 7
8 1 3 4 5
9 1 2 3 4
10 1 6 7 8
11 1 1 2 3
12 1 13 14 15
13 1 12 13 14
14 1 14 15 16
15 1 15 16 17
16 1 17 18 19
17 1 18 19 20
18 1 16 17 18
19 1 19 20 21
20 1 20 21 22
21 1 21 22 23
22 1 22 23 24

Dihedrals

1 1 10 11 12 13
2 1 9 10 11 12
3 1 7 8 9 10
4 1 8 9 10 11
5 1 11 12 13 14
6 1 4 5 6 7
7 1 5 6 7 8
8 1 3 4 5 6
9 1 2 3 4 5
10 1 6 7 8 9
11 1 1 2 3 4
12 1 13 14 15 16
13 1 12 13 14 15
14 1 14 15 16 17
15 1 15 16 17 18
16 1 17 18 19 20
17 1 18 19 20 21
18 1 16 17 18 19
19 1 19 20 21 22
20 1 20 21 22 23
21 1 21 22 23 24
