LAMMPS data file via write_data, version 29 Aug 2024, timestep = 10000000, units = lj

12 atoms
1 atom types
11 bonds
1 bond types
10 angles
1 angle types
9 dihedrals
1 dihedral types

-13.5 36.5 xlo xhi
-25 25 ylo yhi
-25 25 zlo zhi

Masses

1 1

Bond Coeffs # harmonic

1 30 1.4

Angle Coeffs # harmonic

1 18 140

Dihedral Coeffs # multi/harmonic

1 2 2 2 2 2

Atoms # full

1 1 1 -2 5.602630849892221 11.78146916700448 6.550291210950122 0 -3 3
2 1 1 -2 5.826489700255889 12.979989084465489 7.151953031021166 0 -3 3
3 1 1 -2 6.417512728259296 13.312089287273354 8.596580439154968 0 -3 3
4 1 1 -2 5.72938089256658 13.630844191539376 9.914500206214912 0 -3 3
5 1 1 -2 5.5036844608488815 14.590798548687957 11.075335186154 0 -3 3
6 1 1 -2 5.420704640038799 14.315895281800096 12.20445638340839 0 -3 3
7 1 1 -2 6.217691743370644 14.817979581749071 13.44890829041506 0 -3 3
11 1 1 -2 8.236601979621879 12.77139988531038 16.753617632797138 0 -3 3
12 1 1 -2 8.473256107861523 11.569996153501956 17.29542918149299 0 -3 3
8 1 1 -2 7.1982223938088135 14.838463055741506 14.249349583543056 0 -3 3
9 1 1 -2 7.550750344775481 14.380494061007166 15.31290418706784 0 -3 3
10 1 1 -2 8.633509800533197 13.725458433864931 15.82574443310877 0 -3 3

Velocities

1 -0.6540465480437806 -0.27864658142940635 0.3292865310805099
2 -1.5905930284400824 0.5514970126728538 -0.8845074607523356
3 -1.3722130493950424 -0.8276838632443002 1.9276207225229447
4 0.057310557430543044 0.1810981498633934 -0.8879186005442524
5 -0.8185857891927912 0.4541748798366569 -0.539698794769631
6 0.8976918362144624 -0.3256110254916459 0.27684355368022373
7 -0.8463624929541936 0.40365296064762396 -0.7748734321110236
11 0.10805545465017263 0.11187470459273746 0.518406020874092
12 0.37708775253575033 -0.3536095496799207 1.8311182429944455
8 -0.6257295297755613 0.0666600262312307 3.086060611156681
9 -0.9508777758798728 0.38496999493139183 -0.6572963333881084
10 0.06493789942789283 1.6641239780929133 0.5877309767221448

Bonds

1 1 1 2
2 1 2 3
3 1 3 4
4 1 4 5
5 1 5 6
6 1 6 7
7 1 7 8
8 1 11 12
9 1 8 9
10 1 9 10
11 1 10 11

Angles

1 1 1 2 3
2 1 2 3 4
3 1 3 4 5
4 1 4 5 6
5 1 5 6 7
6 1 6 7 8
7 1 10 11 12
8 1 7 8 9
9 1 8 9 10
10 1 9 10 11

Dihedrals

1 1 1 2 3 4
2 1 2 3 4 5
3 1 3 4 5 6
4 1 4 5 6 7
5 1 5 6 7 8
6 1 6 7 8 9
7 1 7 8 9 10
8 1 8 9 10 11
9 1 9 10 11 12
