LAMMPS data file via write_data, version 29 Aug 2024, timestep = 51017, units = lj

18 atoms
1 atom types
17 bonds
1 bond types
16 angles
1 angle types
15 dihedrals
1 dihedral types

-13.5 36.5 xlo xhi
-25 25 ylo yhi
-25 25 zlo zhi

Masses

1 1

Bond Coeffs # harmonic

1 30 1.4

Angle Coeffs # harmonic

1 18 140

Dihedral Coeffs # multi/harmonic

1 2 2 2 2 2

Atoms # full

4 1 1 -2 -6.467947432841797 1.4681432500451195 -9.971992818456018 0 0 0
3 1 1 -2 -6.620546834685821 2.130546132124174 -10.977506446240637 0 0 0
2 1 1 -2 -7.539333890677967 2.4297135855353096 -11.578986964304885 0 0 0
1 1 1 -2 -8.551959752796495 2.371778337033919 -12.647178194652417 0 0 0
5 1 1 -2 -5.474438074149467 1.2295536650742558 -8.861920211284847 0 0 0
6 1 1 -2 -5.19236643434329 0.46600284899840255 -7.608763733122137 0 0 0
7 1 1 -2 -5.253249441566896 0.7202699524633022 -6.033507175250426 0 0 0
9 1 1 -2 -5.021432803987633 -0.12270562459027003 -3.3071776593066344 0 0 0
10 1 1 -2 -4.705482553811388 -1.2508016957404282 -2.6254565505036114 0 0 0
8 1 1 -2 -5.524870606245099 0.01854616183836428 -4.654636226885869 0 0 0
18 1 1 -2 -2.8003522045672367 -7.353880781150609 1.2639623521400758 0 0 0
17 1 1 -2 -1.6128597275702492 -6.509491984523853 0.6661963576149357 0 0 0
12 1 1 -2 -3.026798351848418 -2.104656760515954 -0.9380183695895389 0 0 0
13 1 1 -2 -1.9357104441864406 -2.795903470410185 -0.25302767741320276 0 0 0
16 1 1 -2 -0.9415470417178675 -5.434902620537394 1.3102053694844678 0 0 0
14 1 1 -2 -1.30226656768618 -3.022885063412129 0.8620737947089726 0 0 0
15 1 1 -2 -0.6078232913485958 -4.281104457687755 0.9553482703498182 0 0 0
11 1 1 -2 -3.5198268865234774 -1.6894104420517038 -1.8344331473936115 0 0 0

Velocities

4 -1.262747542419358 1.6735158159975647 0.6279048935546228
3 -1.461466102423247 -1.726076210006731 0.06464368418733402
2 0.6561630149050265 1.0603129466494745 1.7502648072518654
1 -0.04952161509738245 -1.357821952837188 1.043101046534444
5 0.6299887174268977 0.10021229296546005 0.7160919764236355
6 1.4087364316333082 -0.4284479082425505 -0.8131494661063094
7 1.7606541930795487 -0.41003060920505685 -2.1253775430763606
9 0.77130115745671 0.310788076481913 0.5808453405331496
10 -1.0280141364776494 -0.0024736717650329122 0.9970642449164011
8 -1.0632673433196103 0.33476860361405797 0.669258968070606
18 0.26189799562608146 0.8597056422140678 0.4829682024349333
17 1.114038555987291 1.1850984554391708 0.08288679425312644
12 0.26950789542958237 -0.3331704584977644 -0.06354020666254506
13 -0.41075020077731983 -0.36692902042599934 -0.5440371645949553
16 -1.510695553481326 -0.8301314919066795 -0.4870771474876803
14 -0.17347008076142825 -0.17377641899493668 -1.2754144661749134
15 1.0510483741963872 0.13146717879713093 -0.42638013411397296
11 -0.31053007137123173 0.9354342202257965 -0.6425537657708615

Bonds

1 1 4 5
2 1 3 4
3 1 2 3
4 1 1 2
5 1 5 6
6 1 6 7
7 1 7 8
8 1 9 10
9 1 10 11
10 1 8 9
11 1 17 18
12 1 12 13
13 1 13 14
14 1 16 17
15 1 14 15
16 1 15 16
17 1 11 12

Angles

1 1 3 4 5
2 1 2 3 4
3 1 1 2 3
4 1 4 5 6
5 1 5 6 7
6 1 6 7 8
7 1 8 9 10
8 1 9 10 11
9 1 7 8 9
10 1 16 17 18
11 1 11 12 13
12 1 12 13 14
13 1 15 16 17
14 1 13 14 15
15 1 14 15 16
16 1 10 11 12

Dihedrals

1 1 3 4 5 6
2 1 2 3 4 5
3 1 1 2 3 4
4 1 4 5 6 7
5 1 5 6 7 8
6 1 6 7 8 9
7 1 8 9 10 11
8 1 9 10 11 12
9 1 7 8 9 10
10 1 11 12 13 14
11 1 12 13 14 15
12 1 15 16 17 18
13 1 13 14 15 16
14 1 14 15 16 17
15 1 10 11 12 13
