ITEM: TIMESTEP
0
ITEM: NUMBER OF ATOMS
18
ITEM: BOX BOUNDS pp pp pp
-1.3500000000000000e+01 3.6500000000000000e+01
-2.5000000000000000e+01 2.5000000000000000e+01
-2.5000000000000000e+01 2.5000000000000000e+01
ITEM: ATOMS id type xs ys zs
1 1 0.476738 0.456822 0.18969
2 1 0.470573 0.47555 0.209559
3 1 0.45859 0.476797 0.234882
4 1 0.463699 0.486465 0.260759
5 1 0.464196 0.477381 0.28736
6 1 0.48082 0.477752 0.310077
7 1 0.479524 0.483895 0.337524
8 1 0.486667 0.473259 0.362626
14 1 0.473077 0.362142 0.456653
13 1 0.458955 0.385827 0.451191
12 1 0.456065 0.403704 0.429693
11 1 0.459612 0.430866 0.42369
10 1 0.476168 0.446943 0.407453
9 1 0.475433 0.467191 0.387825
17 1 0.53347 0.319548 0.476676
15 1 0.490935 0.350939 0.475197
16 1 0.517822 0.34286 0.476103
18 1 0.555443 0.308632 0.463005
ITEM: TIMESTEP
1000
ITEM: NUMBER OF ATOMS
18
ITEM: BOX BOUNDS pp pp pp
-1.3500000000000000e+01 3.6500000000000000e+01
-2.5000000000000000e+01 2.5000000000000000e+01
-2.5000000000000000e+01 2.5000000000000000e+01
ITEM: ATOMS id type xs ys zs
1 1 0.479372 0.46916 0.186753
2 1 0.465598 0.481733 0.207672
3 1 0.455062 0.475969 0.233022
4 1 0.455875 0.485572 0.259394
5 1 0.460742 0.476477 0.285531
6 1 0.476479 0.482697 0.307971
7 1 0.473828 0.487555 0.335535
8 1 0.484483 0.479004 0.360114
14 1 0.480754 0.359517 0.451456
13 1 0.466713 0.382318 0.442884
12 1 0.466488 0.400923 0.421807
11 1 0.466696 0.428708 0.417515
10 1 0.48077 0.448243 0.402991
9 1 0.476071 0.469522 0.385216
17 1 0.528868 0.315951 0.495028
15 1 0.493959 0.349564 0.474179
16 1 0.518598 0.338363 0.481646
18 1 0.547433 0.2953 0.49125
ITEM: TIMESTEP
1017
ITEM: NUMBER OF ATOMS
18
ITEM: BOX BOUNDS pp pp pp
-1.3500000000000000e+01 3.6500000000000000e+01
-2.5000000000000000e+01 2.5000000000000000e+01
-2.5000000000000000e+01 2.5000000000000000e+01
ITEM: ATOMS id type xs ys zs
1 1 0.479372 0.46916 0.186753
2 1 0.465598 0.481733 0.207672
3 1 0.455062 0.475969 0.233022
4 1 0.455875 0.485572 0.259394
5 1 0.460742 0.476477 0.285531
6 1 0.476479 0.482697 0.307971
7 1 0.473828 0.487555 0.335535
8 1 0.484483 0.479004 0.360114
14 1 0.480754 0.359517 0.451456
13 1 0.466713 0.382318 0.442884
12 1 0.466488 0.400923 0.421807
11 1 0.466696 0.428708 0.417515
10 1 0.48077 0.448243 0.402991
9 1 0.476071 0.469522 0.385216
17 1 0.528868 0.315951 0.495028
15 1 0.493959 0.349564 0.474179
16 1 0.518598 0.338363 0.481646
18 1 0.547433 0.2953 0.49125
ITEM: TIMESTEP
2000
ITEM: NUMBER OF ATOMS
18
ITEM: BOX BOUNDS pp pp pp
-1.3500000000000000e+01 3.6500000000000000e+01
-2.5000000000000000e+01 2.5000000000000000e+01
-2.5000000000000000e+01 2.5000000000000000e+01
ITEM: ATOMS id type xs ys zs
1 1 0.395312 0.490557 0.241435
2 1 0.421592 0.496619 0.242007
3 1 0.449586 0.484794 0.251275
4 1 0.468561 0.496833 0.266343
5 1 0.468796 0.504331 0.294325
6 1 0.478865 0.493821 0.320199
7 1 0.480314 0.496963 0.34418
8 1 0.497031 0.496246 0.365195
14 1 0.498174 0.391049 0.449597
13 1 0.475425 0.408244 0.441076
12 1 0.474964 0.429212 0.426166
11 1 0.491171 0.453395 0.422487
10 1 0.507319 0.465771 0.404074
9 1 0.498407 0.491235 0.393855
18 1 0.562882 0.362421 0.540155
17 1 0.541429 0.363422 0.512017
15 1 0.506131 0.378238 0.475146
16 1 0.524813 0.379737 0.49636
ITEM: TIMESTEP
3000
ITEM: NUMBER OF ATOMS
18
ITEM: BOX BOUNDS pp pp pp
-1.3500000000000000e+01 3.6500000000000000e+01
-2.5000000000000000e+01 2.5000000000000000e+01
-2.5000000000000000e+01 2.5000000000000000e+01
ITEM: ATOMS id type xs ys zs
1 1 0.479704 0.453583 0.238148
2 1 0.492211 0.463334 0.258831
3 1 0.484998 0.479941 0.279282
4 1 0.497004 0.503505 0.292976
5 1 0.51738 0.50754 0.307665
6 1 0.522718 0.5049 0.335508
7 1 0.513393 0.515734 0.361591
8 1 0.510552 0.505542 0.389783
14 1 0.518799 0.416113 0.475298
13 1 0.503202 0.408639 0.450603
12 1 0.499996 0.421635 0.426387
11 1 0.481722 0.436451 0.410541
10 1 0.491153 0.460486 0.396945
9 1 0.490635 0.483246 0.394799
15 1 0.54448 0.410486 0.48519
16 1 0.5685 0.422748 0.494283
17 1 0.584044 0.424253 0.517991
18 1 0.59975 0.440945 0.531515
ITEM: TIMESTEP
4000
ITEM: NUMBER OF ATOMS
18
ITEM: BOX BOUNDS pp pp pp
-1.3500000000000000e+01 3.6500000000000000e+01
-2.5000000000000000e+01 2.5000000000000000e+01
-2.5000000000000000e+01 2.5000000000000000e+01
ITEM: ATOMS id type xs ys zs
1 1 0.484543 0.45487 0.225599
2 1 0.472362 0.478466 0.237232
3 1 0.47281 0.491216 0.263752
4 1 0.487969 0.510137 0.278058
5 1 0.508053 0.513487 0.302193
6 1 0.509668 0.520143 0.332404
7 1 0.499716 0.503888 0.353341
13 1 0.530112 0.394742 0.453581
12 1 0.526508 0.401032 0.424249
11 1 0.515624 0.421018 0.406831
10 1 0.522727 0.443119 0.395521
8 1 0.51103 0.48966 0.380491
9 1 0.505626 0.466666 0.390473
14 1 0.54939 0.386243 0.476666
15 1 0.56869 0.401406 0.495245
16 1 0.585048 0.398665 0.523968
17 1 0.611208 0.395782 0.534916
18 1 0.628797 0.400746 0.556831
ITEM: TIMESTEP
5000
ITEM: NUMBER OF ATOMS
18
ITEM: BOX BOUNDS pp pp pp
-1.3500000000000000e+01 3.6500000000000000e+01
-2.5000000000000000e+01 2.5000000000000000e+01
-2.5000000000000000e+01 2.5000000000000000e+01
ITEM: ATOMS id type xs ys zs
1 1 0.441714 0.482654 0.224692
2 1 0.459463 0.490071 0.235198
3 1 0.465391 0.503749 0.256828
4 1 0.47999 0.494874 0.278685
5 1 0.480639 0.493804 0.304807
6 1 0.492161 0.483166 0.328141
7 1 0.481293 0.470192 0.350884
8 1 0.480326 0.464675 0.381429
13 1 0.549127 0.415476 0.467593
12 1 0.536634 0.41577 0.449255
11 1 0.511414 0.426208 0.439675
10 1 0.501564 0.428199 0.414167
9 1 0.480649 0.44036 0.397022
14 1 0.550491 0.401123 0.490929
15 1 0.565859 0.383554 0.502759
16 1 0.562463 0.378644 0.528388
17 1 0.573726 0.371869 0.549232
18 1 0.586849 0.383773 0.570977
ITEM: TIMESTEP
6000
ITEM: NUMBER OF ATOMS
18
ITEM: BOX BOUNDS pp pp pp
-1.3500000000000000e+01 3.6500000000000000e+01
-2.5000000000000000e+01 2.5000000000000000e+01
-2.5000000000000000e+01 2.5000000000000000e+01
ITEM: ATOMS id type xs ys zs
1 1 0.440237 0.566762 0.266265
2 1 0.446448 0.538535 0.274693
3 1 0.46132 0.522611 0.287381
4 1 0.462974 0.503111 0.308158
5 1 0.469625 0.473654 0.312333
6 1 0.468089 0.453521 0.336171
7 1 0.485069 0.449042 0.354826
8 1 0.491746 0.426937 0.373008
12 1 0.524304 0.410361 0.469968
11 1 0.5157 0.395988 0.446694
10 1 0.5071 0.404227 0.421322
9 1 0.489348 0.415624 0.403843
16 1 0.544237 0.424645 0.572461
13 1 0.525059 0.401567 0.502316
14 1 0.513824 0.416634 0.527775
15 1 0.522435 0.413419 0.555999
17 1 0.550684 0.436721 0.595727
18 1 0.571654 0.448799 0.613851
ITEM: TIMESTEP
7000
ITEM: NUMBER OF ATOMS
18
ITEM: BOX BOUNDS pp pp pp
-1.3500000000000000e+01 3.6500000000000000e+01
-2.5000000000000000e+01 2.5000000000000000e+01
-2.5000000000000000e+01 2.5000000000000000e+01
ITEM: ATOMS id type xs ys zs
3 1 0.466544 0.531268 0.276152
1 1 0.463487 0.543398 0.225893
2 1 0.47534 0.54444 0.249914
6 1 0.467106 0.481218 0.332897
7 1 0.477853 0.463795 0.349971
8 1 0.474277 0.464638 0.376999
4 1 0.473797 0.522758 0.29984
5 1 0.477656 0.499383 0.312709
11 1 0.501097 0.420946 0.439579
10 1 0.494717 0.437679 0.422439
9 1 0.478545 0.442628 0.401001
12 1 0.51615 0.409148 0.463311
13 1 0.536845 0.391962 0.472887
14 1 0.539715 0.376897 0.496611
15 1 0.533546 0.385968 0.524459
16 1 0.542256 0.400295 0.54459
17 1 0.532716 0.416382 0.565434
18 1 0.524801 0.410035 0.592637
ITEM: TIMESTEP
8000
ITEM: NUMBER OF ATOMS
18
ITEM: BOX BOUNDS pp pp pp
-1.3500000000000000e+01 3.6500000000000000e+01
-2.5000000000000000e+01 2.5000000000000000e+01
-2.5000000000000000e+01 2.5000000000000000e+01
ITEM: ATOMS id type xs ys zs
1 1 0.457543 0.511098 0.199992
3 1 0.462733 0.489475 0.245047
4 1 0.462396 0.4712 0.267577
2 1 0.472832 0.502004 0.219873
6 1 0.458343 0.453986 0.317128
7 1 0.474311 0.446729 0.337415
8 1 0.484441 0.428579 0.355711
5 1 0.457563 0.46763 0.29316
11 1 0.496149 0.404109 0.4262
10 1 0.508549 0.415089 0.404078
9 1 0.498456 0.430959 0.380836
14 1 0.496186 0.409057 0.507064
12 1 0.498756 0.417062 0.451272
13 1 0.503589 0.406207 0.477414
15 1 0.508278 0.407718 0.527388
17 1 0.535607 0.425329 0.56316
18 1 0.521033 0.435197 0.589083
16 1 0.52887 0.423922 0.540491
ITEM: TIMESTEP
9000
ITEM: NUMBER OF ATOMS
18
ITEM: BOX BOUNDS pp pp pp
-1.3500000000000000e+01 3.6500000000000000e+01
-2.5000000000000000e+01 2.5000000000000000e+01
-2.5000000000000000e+01 2.5000000000000000e+01
ITEM: ATOMS id type xs ys zs
1 1 0.387334 0.515655 0.222693
2 1 0.408518 0.505489 0.238884
5 1 0.435646 0.466579 0.301636
3 1 0.413928 0.496755 0.262877
4 1 0.420997 0.471615 0.281516
6 1 0.450841 0.445504 0.316259
7 1 0.446004 0.427573 0.339107
8 1 0.459565 0.428623 0.361957
9 1 0.457083 0.427895 0.393725
11 1 0.472949 0.40734 0.439709
10 1 0.474509 0.415061 0.412085
12 1 0.492633 0.398005 0.458521
14 1 0.520032 0.385763 0.495605
13 1 0.499719 0.390574 0.481464
15 1 0.527607 0.391702 0.518885
17 1 0.551589 0.386229 0.568942
18 1 0.572361 0.372764 0.579829
16 1 0.528714 0.384274 0.546219
ITEM: TIMESTEP
10000
ITEM: NUMBER OF ATOMS
18
ITEM: BOX BOUNDS pp pp pp
-1.3500000000000000e+01 3.6500000000000000e+01
-2.5000000000000000e+01 2.5000000000000000e+01
-2.5000000000000000e+01 2.5000000000000000e+01
ITEM: ATOMS id type xs ys zs
1 1 0.376884 0.498948 0.190363
2 1 0.388806 0.477905 0.211113
5 1 0.391209 0.460911 0.285317
3 1 0.382798 0.475884 0.233726
4 1 0.389258 0.460309 0.255037
6 1 0.394708 0.437851 0.307604
7 1 0.416878 0.430038 0.326633
8 1 0.420763 0.425296 0.352742
9 1 0.439161 0.416789 0.371983
11 1 0.470658 0.415243 0.415476
10 1 0.446953 0.420893 0.398565
12 1 0.477344 0.400157 0.437301
14 1 0.490667 0.37706 0.476808
13 1 0.482187 0.39861 0.462114
15 1 0.492153 0.369959 0.501531
18 1 0.509942 0.347321 0.575577
16 1 0.510082 0.369739 0.523257
17 1 0.501708 0.361989 0.553758
ITEM: TIMESTEP
11000
ITEM: NUMBER OF ATOMS
18
ITEM: BOX BOUNDS pp pp pp
-1.3500000000000000e+01 3.6500000000000000e+01
-2.5000000000000000e+01 2.5000000000000000e+01
-2.5000000000000000e+01 2.5000000000000000e+01
ITEM: ATOMS id type xs ys zs
1 1 0.358909 0.538276 0.223197
2 1 0.382884 0.522892 0.232169
5 1 0.416862 0.478087 0.288418
4 1 0.4031 0.485155 0.269247
6 1 0.419668 0.463483 0.307201
3 1 0.398739 0.5175 0.253874
7 1 0.419296 0.465934 0.338234
8 1 0.405541 0.453886 0.358669
9 1 0.41228 0.440102 0.373906
10 1 0.413634 0.436403 0.403038
11 1 0.423493 0.430892 0.420021
12 1 0.424191 0.406565 0.441101
14 1 0.445162 0.391183 0.496792
15 1 0.440427 0.379506 0.519373
16 1 0.449303 0.359549 0.536216
13 1 0.431198 0.407969 0.470473
18 1 0.480056 0.342874 0.572915
17 1 0.467621 0.362121 0.555961
ITEM: TIMESTEP
12000
ITEM: NUMBER OF ATOMS
18
ITEM: BOX BOUNDS pp pp pp
-1.3500000000000000e+01 3.6500000000000000e+01
-2.5000000000000000e+01 2.5000000000000000e+01
-2.5000000000000000e+01 2.5000000000000000e+01
ITEM: ATOMS id type xs ys zs
1 1 0.399572 0.507491 0.198383
2 1 0.412573 0.484349 0.21565
5 1 0.431771 0.451196 0.287576
4 1 0.425719 0.45937 0.259608
3 1 0.408187 0.469111 0.239236
8 1 0.432589 0.418002 0.366161
9 1 0.432069 0.419891 0.395923
6 1 0.427423 0.436397 0.313749
7 1 0.439814 0.433832 0.338474
10 1 0.412628 0.408477 0.414043
11 1 0.412409 0.406282 0.442476
12 1 0.415788 0.393384 0.461147
15 1 0.459741 0.371865 0.508789
16 1 0.483913 0.368479 0.5225
14 1 0.440365 0.392151 0.49916
13 1 0.434614 0.394366 0.478216
18 1 0.528147 0.377473 0.521129
17 1 0.512558 0.361618 0.524669
ITEM: TIMESTEP
13000
ITEM: NUMBER OF ATOMS
18
ITEM: BOX BOUNDS pp pp pp
-1.3500000000000000e+01 3.6500000000000000e+01
-2.5000000000000000e+01 2.5000000000000000e+01
-2.5000000000000000e+01 2.5000000000000000e+01
ITEM: ATOMS id type xs ys zs
1 1 0.466442 0.461363 0.180766
2 1 0.469161 0.450755 0.205841
5 1 0.441582 0.461714 0.273253
4 1 0.438751 0.462232 0.247454
3 1 0.446316 0.444149 0.22523
8 1 0.408529 0.450001 0.342941
6 1 0.43017 0.473319 0.297094
7 1 0.411992 0.458492 0.315132
9 1 0.411275 0.426622 0.361186
10 1 0.419866 0.415018 0.384545
11 1 0.406908 0.395905 0.409069
15 1 0.468487 0.363022 0.497645
16 1 0.492503 0.364119 0.518608
18 1 0.530479 0.355963 0.560063
17 1 0.506027 0.363949 0.54392
12 1 0.418878 0.3806 0.431007
14 1 0.458198 0.373558 0.473627
13 1 0.431019 0.381714 0.457443
ITEM: TIMESTEP
14000
ITEM: NUMBER OF ATOMS
18
ITEM: BOX BOUNDS pp pp pp
-1.3500000000000000e+01 3.6500000000000000e+01
-2.5000000000000000e+01 2.5000000000000000e+01
-2.5000000000000000e+01 2.5000000000000000e+01
ITEM: ATOMS id type xs ys zs
3 1 0.44894 0.479239 0.207378
1 1 0.471544 0.498582 0.153872
2 1 0.462815 0.477734 0.178844
5 1 0.463034 0.448299 0.257102
4 1 0.461037 0.473469 0.235067
6 1 0.456291 0.445025 0.284999
8 1 0.423093 0.415213 0.31136
7 1 0.444612 0.42314 0.302749
9 1 0.414206 0.415836 0.334051
12 1 0.405019 0.371682 0.405847
13 1 0.416022 0.362736 0.427162
10 1 0.402941 0.398007 0.354206
11 1 0.409965 0.381927 0.375865
14 1 0.41731 0.365122 0.451713
15 1 0.429885 0.373197 0.473528
16 1 0.445137 0.367744 0.493947
18 1 0.496245 0.3763 0.520049
17 1 0.474622 0.373803 0.50105
ITEM: TIMESTEP
15000
ITEM: NUMBER OF ATOMS
18
ITEM: BOX BOUNDS pp pp pp
-1.3500000000000000e+01 3.6500000000000000e+01
-2.5000000000000000e+01 2.5000000000000000e+01
-2.5000000000000000e+01 2.5000000000000000e+01
ITEM: ATOMS id type xs ys zs
1 1 0.364283 0.545413 0.206407
3 1 0.397213 0.515184 0.236803
2 1 0.385246 0.526982 0.21192
6 1 0.445247 0.476055 0.281673
7 1 0.445764 0.450179 0.292853
5 1 0.441758 0.48806 0.257591
4 1 0.42353 0.510166 0.248711
11 1 0.393304 0.408622 0.359299
8 1 0.424463 0.433301 0.297419
9 1 0.411179 0.427597 0.321753
10 1 0.388507 0.421707 0.339316
12 1 0.395184 0.411583 0.385183
13 1 0.413895 0.414109 0.403543
14 1 0.427776 0.39866 0.420704
15 1 0.452875 0.384878 0.428175
16 1 0.472704 0.394797 0.443256
18 1 0.495101 0.389279 0.482887
17 1 0.486571 0.382461 0.456565
ITEM: TIMESTEP
16000
ITEM: NUMBER OF ATOMS
18
ITEM: BOX BOUNDS pp pp pp
-1.3500000000000000e+01 3.6500000000000000e+01
-2.5000000000000000e+01 2.5000000000000000e+01
-2.5000000000000000e+01 2.5000000000000000e+01
ITEM: ATOMS id type xs ys zs
2 1 0.37704 0.525874 0.208972
1 1 0.351246 0.540926 0.200484
7 1 0.386409 0.426703 0.293126
8 1 0.37724 0.408226 0.313042
3 1 0.392001 0.499385 0.217909
6 1 0.377699 0.446219 0.280137
5 1 0.386054 0.461107 0.25532
4 1 0.393174 0.486677 0.247211
11 1 0.376631 0.350434 0.360858
9 1 0.374126 0.383072 0.318968
10 1 0.363377 0.360223 0.340238
17 1 0.443775 0.39167 0.500365
12 1 0.3813 0.359263 0.38954
13 1 0.400189 0.363309 0.403314
14 1 0.411249 0.387638 0.422688
15 1 0.415349 0.394519 0.449111
16 1 0.437298 0.400051 0.469374
18 1 0.452264 0.408745 0.520936
ITEM: TIMESTEP
17000
ITEM: NUMBER OF ATOMS
18
ITEM: BOX BOUNDS pp pp pp
-1.3500000000000000e+01 3.6500000000000000e+01
-2.5000000000000000e+01 2.5000000000000000e+01
-2.5000000000000000e+01 2.5000000000000000e+01
ITEM: ATOMS id type xs ys zs
2 1 0.360858 0.545862 0.204909
3 1 0.341401 0.531303 0.224996
1 1 0.35878 0.559469 0.183241
6 1 0.33599 0.454304 0.257142
7 1 0.335602 0.439307 0.274479
5 1 0.341932 0.480259 0.250096
4 1 0.331059 0.505612 0.227965
11 1 0.373778 0.377346 0.349011
9 1 0.368391 0.41022 0.305665
10 1 0.368726 0.401025 0.331075
8 1 0.345841 0.414118 0.28444
12 1 0.369471 0.367827 0.373714
13 1 0.380115 0.362961 0.398992
14 1 0.38073 0.384445 0.418738
15 1 0.376166 0.388534 0.449162
17 1 0.379582 0.414099 0.499303
16 1 0.369648 0.407866 0.471163
18 1 0.385483 0.438573 0.511386
ITEM: TIMESTEP
18000
ITEM: NUMBER OF ATOMS
18
ITEM: BOX BOUNDS pp pp pp
-1.3500000000000000e+01 3.6500000000000000e+01
-2.5000000000000000e+01 2.5000000000000000e+01
-2.5000000000000000e+01 2.5000000000000000e+01
ITEM: ATOMS id type xs ys zs
2 1 0.359974 0.571405 0.219083
1 1 0.368151 0.577796 0.190949
7 1 0.347879 0.461488 0.262694
9 1 0.354668 0.420833 0.298743
8 1 0.345001 0.439157 0.284846
4 1 0.35971 0.53763 0.261935
6 1 0.345146 0.490598 0.265837
5 1 0.36248 0.512401 0.268775
3 1 0.366972 0.553504 0.242816
12 1 0.385312 0.381256 0.363247
13 1 0.390619 0.358284 0.378294
11 1 0.367748 0.389041 0.334819
10 1 0.357875 0.410181 0.325078
14 1 0.397116 0.35124 0.405629
15 1 0.389773 0.331723 0.42813
16 1 0.393252 0.331131 0.460746
17 1 0.376587 0.346116 0.482467
18 1 0.377969 0.361915 0.506471
ITEM: TIMESTEP
19000
ITEM: NUMBER OF ATOMS
18
ITEM: BOX BOUNDS pp pp pp
-1.3500000000000000e+01 3.6500000000000000e+01
-2.5000000000000000e+01 2.5000000000000000e+01
-2.5000000000000000e+01 2.5000000000000000e+01
ITEM: ATOMS id type xs ys zs
2 1 0.352299 0.574168 0.239436
1 1 0.369123 0.58996 0.260145
7 1 0.333205 0.452539 0.271989
9 1 0.333277 0.418048 0.304639
8 1 0.32239 0.428296 0.283292
4 1 0.335514 0.529289 0.241165
6 1 0.327281 0.479079 0.256048
5 1 0.333324 0.510704 0.257329
3 1 0.329234 0.553368 0.244052
12 1 0.376056 0.372441 0.350031
13 1 0.381327 0.351957 0.367825
11 1 0.357412 0.389867 0.342058
10 1 0.342953 0.394027 0.319393
14 1 0.401481 0.35192 0.388567
15 1 0.408716 0.341849 0.416306
16 1 0.4197 0.350628 0.447236
17 1 0.404818 0.35316 0.470149
18 1 0.400737 0.370232 0.48851
ITEM: TIMESTEP
20000
ITEM: NUMBER OF ATOMS
18
ITEM: BOX BOUNDS pp pp pp
-1.3500000000000000e+01 3.6500000000000000e+01
-2.5000000000000000e+01 2.5000000000000000e+01
-2.5000000000000000e+01 2.5000000000000000e+01
ITEM: ATOMS id type xs ys zs
7 1 0.31171 0.473641 0.283275
9 1 0.31593 0.436012 0.320546
8 1 0.306032 0.44892 0.297012
4 1 0.330355 0.542884 0.238803
6 1 0.304155 0.50081 0.271155
5 1 0.309465 0.520814 0.245019
2 1 0.358103 0.588595 0.245395
1 1 0.370094 0.613425 0.233892
3 1 0.33765 0.570881 0.241091
12 1 0.349241 0.370785 0.341008
13 1 0.357856 0.359828 0.361551
11 1 0.326061 0.386686 0.330372
10 1 0.325193 0.410154 0.316652
14 1 0.375533 0.356853 0.382667
15 1 0.388788 0.343152 0.406119
16 1 0.398565 0.349992 0.433576
17 1 0.395747 0.344386 0.457561
18 1 0.412699 0.332174 0.483053
ITEM: TIMESTEP
21000
ITEM: NUMBER OF ATOMS
18
ITEM: BOX BOUNDS pp pp pp
-1.3500000000000000e+01 3.6500000000000000e+01
-2.5000000000000000e+01 2.5000000000000000e+01
-2.5000000000000000e+01 2.5000000000000000e+01
ITEM: ATOMS id type xs ys zs
8 1 0.319817 0.441111 0.291586
6 1 0.320572 0.491025 0.275616
7 1 0.322304 0.466141 0.276158
5 1 0.335019 0.506636 0.261269
4 1 0.358655 0.528743 0.258889
2 1 0.372166 0.570021 0.221119
1 1 0.371667 0.573734 0.193762
3 1 0.35779 0.552197 0.24485
12 1 0.29987 0.351192 0.352875
13 1 0.312343 0.346457 0.372851
14 1 0.313627 0.321265 0.392255
9 1 0.30135 0.412783 0.293796
11 1 0.304383 0.361228 0.322679
10 1 0.308631 0.38363 0.307304
15 1 0.332134 0.30847 0.409377
16 1 0.337022 0.300376 0.43561
17 1 0.360344 0.293755 0.450985
18 1 0.372346 0.299594 0.474657
ITEM: TIMESTEP
22000
ITEM: NUMBER OF ATOMS
18
ITEM: BOX BOUNDS pp pp pp
-1.3500000000000000e+01 3.6500000000000000e+01
-2.5000000000000000e+01 2.5000000000000000e+01
-2.5000000000000000e+01 2.5000000000000000e+01
ITEM: ATOMS id type xs ys zs
2 1 0.372577 0.557032 0.225871
1 1 0.392417 0.573674 0.214854
10 1 0.289992 0.410806 0.343222
9 1 0.284896 0.438105 0.33036
8 1 0.29591 0.455941 0.304383
6 1 0.308831 0.497257 0.28302
7 1 0.306443 0.480206 0.30051
5 1 0.325994 0.508845 0.263303
4 1 0.339975 0.532716 0.258835
3 1 0.364217 0.544266 0.246419
12 1 0.307321 0.374921 0.369631
11 1 0.297226 0.393058 0.362808
13 1 0.313596 0.362343 0.393538
16 1 0.383751 0.334118 0.418442
17 1 0.40074 0.316709 0.403956
14 1 0.336256 0.356073 0.40503
15 1 0.357331 0.338937 0.41146
18 1 0.422675 0.319263 0.387891
ITEM: TIMESTEP
23000
ITEM: NUMBER OF ATOMS
18
ITEM: BOX BOUNDS pp pp pp
-1.3500000000000000e+01 3.6500000000000000e+01
-2.5000000000000000e+01 2.5000000000000000e+01
-2.5000000000000000e+01 2.5000000000000000e+01
ITEM: ATOMS id type xs ys zs
2 1 0.391969 0.529417 0.240282
1 1 0.421625 0.533425 0.238805
8 1 0.294572 0.448576 0.33328
7 1 0.311541 0.461303 0.313368
6 1 0.317341 0.485732 0.298621
5 1 0.329285 0.493901 0.272362
4 1 0.352809 0.509788 0.26209
3 1 0.374886 0.510645 0.245251
12 1 0.325096 0.418595 0.422781
10 1 0.292662 0.430097 0.380561
9 1 0.298704 0.433786 0.355753
11 1 0.305739 0.428898 0.404989
13 1 0.32484 0.394972 0.439708
14 1 0.342628 0.365433 0.44442
15 1 0.344273 0.347449 0.460968
16 1 0.36754 0.328781 0.457502
17 1 0.379965 0.304534 0.443277
18 1 0.384246 0.280053 0.453575
ITEM: TIMESTEP
24000
ITEM: NUMBER OF ATOMS
18
ITEM: BOX BOUNDS pp pp pp
-1.3500000000000000e+01 3.6500000000000000e+01
-2.5000000000000000e+01 2.5000000000000000e+01
-2.5000000000000000e+01 2.5000000000000000e+01
ITEM: ATOMS id type xs ys zs
6 1 0.322675 0.484614 0.298535
5 1 0.347416 0.493339 0.285341
4 1 0.349094 0.512866 0.26487
3 1 0.36708 0.530342 0.250885
2 1 0.384813 0.533174 0.227942
1 1 0.412789 0.543552 0.225966
8 1 0.307171 0.462509 0.345968
10 1 0.292542 0.437142 0.396261
9 1 0.30176 0.460121 0.374942
7 1 0.322092 0.47055 0.320593
17 1 0.289507 0.294531 0.476546
18 1 0.301253 0.270761 0.487232
14 1 0.269599 0.369497 0.474429
15 1 0.268145 0.344691 0.477725
16 1 0.286379 0.322615 0.48548
11 1 0.294406 0.410609 0.412782
12 1 0.293094 0.398943 0.433853
13 1 0.27709 0.381698 0.444846
ITEM: TIMESTEP
25000
ITEM: NUMBER OF ATOMS
18
ITEM: BOX BOUNDS pp pp pp
-1.3500000000000000e+01 3.6500000000000000e+01
-2.5000000000000000e+01 2.5000000000000000e+01
-2.5000000000000000e+01 2.5000000000000000e+01
ITEM: ATOMS id type xs ys zs
1 1 0.346825 0.532629 0.217881
2 1 0.36136 0.520684 0.234519
4 1 0.355495 0.506633 0.287193
3 1 0.359267 0.503501 0.256122
9 1 0.356273 0.429878 0.383907
8 1 0.364935 0.455721 0.376606
6 1 0.358392 0.478138 0.327772
5 1 0.348216 0.492943 0.308658
7 1 0.353869 0.47463 0.359008
13 1 0.299102 0.351075 0.435947
14 1 0.281058 0.329111 0.448504
12 1 0.319753 0.374311 0.439973
10 1 0.347147 0.414734 0.407763
11 1 0.325998 0.396849 0.420968
17 1 0.216156 0.290238 0.483136
18 1 0.2041 0.26722 0.4941
16 1 0.237854 0.3039 0.483536
15 1 0.251221 0.324941 0.466076
ITEM: TIMESTEP
26000
ITEM: NUMBER OF ATOMS
18
ITEM: BOX BOUNDS pp pp pp
-1.3500000000000000e+01 3.6500000000000000e+01
-2.5000000000000000e+01 2.5000000000000000e+01
-2.5000000000000000e+01 2.5000000000000000e+01
ITEM: ATOMS id type xs ys zs
1 1 0.303544 0.548723 0.240056
2 1 0.312573 0.531093 0.262024
4 1 0.318399 0.486623 0.284632
3 1 0.320259 0.507677 0.265836
9 1 0.341293 0.421169 0.396609
8 1 0.34303 0.423736 0.370099
6 1 0.333139 0.459221 0.330018
5 1 0.332153 0.464186 0.303188
7 1 0.330478 0.435521 0.347997
13 1 0.309627 0.347914 0.45332
14 1 0.286388 0.337937 0.44879
12 1 0.313365 0.375242 0.450011
10 1 0.335313 0.397375 0.410375
11 1 0.31971 0.392713 0.429191
17 1 0.225314 0.301623 0.462501
18 1 0.20233 0.296149 0.47161
16 1 0.25311 0.304213 0.46906
15 1 0.268733 0.325936 0.465052
ITEM: TIMESTEP
27000
ITEM: NUMBER OF ATOMS
18
ITEM: BOX BOUNDS pp pp pp
-1.3500000000000000e+01 3.6500000000000000e+01
-2.5000000000000000e+01 2.5000000000000000e+01
-2.5000000000000000e+01 2.5000000000000000e+01
ITEM: ATOMS id type xs ys zs
2 1 0.342361 0.555351 0.24516
4 1 0.340613 0.508375 0.276204
3 1 0.345671 0.528445 0.248432
5 1 0.333997 0.48018 0.280552
1 1 0.35352 0.578297 0.253654
8 1 0.328317 0.432734 0.349938
6 1 0.343921 0.454723 0.301758
7 1 0.328626 0.444152 0.320169
14 1 0.268063 0.341381 0.470374
13 1 0.288226 0.358278 0.454696
12 1 0.29257 0.369662 0.425561
9 1 0.313521 0.407475 0.364584
10 1 0.322696 0.394248 0.387913
11 1 0.310497 0.374433 0.401881
17 1 0.20008 0.318272 0.462333
18 1 0.169961 0.311279 0.460124
16 1 0.219998 0.333442 0.479281
15 1 0.247075 0.334017 0.486043
ITEM: TIMESTEP
28000
ITEM: NUMBER OF ATOMS
18
ITEM: BOX BOUNDS pp pp pp
-1.3500000000000000e+01 3.6500000000000000e+01
-2.5000000000000000e+01 2.5000000000000000e+01
-2.5000000000000000e+01 2.5000000000000000e+01
ITEM: ATOMS id type xs ys zs
6 1 0.325169 0.487665 0.32057
4 1 0.330721 0.52568 0.289354
3 1 0.341123 0.538742 0.268083
5 1 0.333877 0.498056 0.2981
2 1 0.353588 0.564298 0.259972
1 1 0.349405 0.586869 0.237499
8 1 0.319304 0.45429 0.369036
7 1 0.325384 0.467037 0.336919
9 1 0.329745 0.426224 0.38891
18 1 0.178875 0.324503 0.501273
13 1 0.284617 0.344544 0.453826
12 1 0.308172 0.355719 0.44093
11 1 0.323107 0.381994 0.435152
10 1 0.321616 0.407843 0.413017
17 1 0.20798 0.311814 0.501689
16 1 0.233852 0.319856 0.49378
14 1 0.276866 0.328363 0.474473
15 1 0.258952 0.326744 0.497574
ITEM: TIMESTEP
29000
ITEM: NUMBER OF ATOMS
18
ITEM: BOX BOUNDS pp pp pp
-1.3500000000000000e+01 3.6500000000000000e+01
-2.5000000000000000e+01 2.5000000000000000e+01
-2.5000000000000000e+01 2.5000000000000000e+01
ITEM: ATOMS id type xs ys zs
4 1 0.337614 0.501998 0.296129
5 1 0.355536 0.488401 0.317009
3 1 0.328979 0.507481 0.268596
2 1 0.321185 0.525327 0.247982
1 1 0.333752 0.526621 0.223701
8 1 0.343988 0.440683 0.386962
6 1 0.35349 0.465669 0.338429
7 1 0.362314 0.454493 0.367182
13 1 0.286249 0.346772 0.465782
12 1 0.293558 0.364315 0.450714
11 1 0.308649 0.383542 0.440566
9 1 0.338218 0.425052 0.408874
10 1 0.323733 0.398977 0.415353
18 1 0.221442 0.387347 0.553137
17 1 0.233525 0.380216 0.534071
16 1 0.236853 0.359356 0.51642
14 1 0.268425 0.335387 0.481655
15 1 0.257183 0.339745 0.505587
ITEM: TIMESTEP
30000
ITEM: NUMBER OF ATOMS
18
ITEM: BOX BOUNDS pp pp pp
-1.3500000000000000e+01 3.6500000000000000e+01
-2.5000000000000000e+01 2.5000000000000000e+01
-2.5000000000000000e+01 2.5000000000000000e+01
ITEM: ATOMS id type xs ys zs
1 1 0.298275 0.56739 0.284327
4 1 0.307445 0.491466 0.295134
3 1 0.309289 0.515773 0.292215
2 1 0.303996 0.537821 0.280206
7 1 0.317066 0.435359 0.353815
5 1 0.30702 0.477689 0.316833
6 1 0.32166 0.459724 0.341361
12 1 0.311344 0.395306 0.467673
8 1 0.328775 0.419891 0.375296
11 1 0.321935 0.411689 0.451844
9 1 0.326406 0.411589 0.403247
10 1 0.337619 0.413524 0.425571
13 1 0.287113 0.393351 0.48964
17 1 0.211145 0.361985 0.548111
16 1 0.226402 0.357213 0.523617
14 1 0.267413 0.374441 0.497637
15 1 0.252971 0.367191 0.519551
18 1 0.187169 0.369954 0.554958
ITEM: TIMESTEP
31000
ITEM: NUMBER OF ATOMS
18
ITEM: BOX BOUNDS pp pp pp
-1.3500000000000000e+01 3.6500000000000000e+01
-2.5000000000000000e+01 2.5000000000000000e+01
-2.5000000000000000e+01 2.5000000000000000e+01
ITEM: ATOMS id type xs ys zs
4 1 0.319036 0.474863 0.30088
2 1 0.286449 0.507743 0.293743
3 1 0.298532 0.488051 0.284223
1 1 0.280209 0.53034 0.285559
7 1 0.334484 0.436332 0.369971
6 1 0.33784 0.445831 0.340874
8 1 0.330973 0.440507 0.393148
5 1 0.322712 0.451435 0.320246
11 1 0.302364 0.404236 0.453545
9 1 0.333072 0.428374 0.417695
10 1 0.313736 0.425974 0.443152
16 1 0.236638 0.358782 0.559283
14 1 0.26509 0.37074 0.518627
15 1 0.258264 0.372419 0.54396
13 1 0.274364 0.389309 0.499387
12 1 0.295077 0.38753 0.477076
17 1 0.21873 0.367108 0.574077
18 1 0.19148 0.357623 0.574344
ITEM: TIMESTEP
32000
ITEM: NUMBER OF ATOMS
18
ITEM: BOX BOUNDS pp pp pp
-1.3500000000000000e+01 3.6500000000000000e+01
-2.5000000000000000e+01 2.5000000000000000e+01
-2.5000000000000000e+01 2.5000000000000000e+01
ITEM: ATOMS id type xs ys zs
2 1 0.236123 0.490614 0.322604
3 1 0.253929 0.472302 0.332729
1 1 0.216988 0.512526 0.329348
4 1 0.281667 0.462891 0.333439
7 1 0.31681 0.453284 0.403409
6 1 0.315669 0.45509 0.375967
5 1 0.298476 0.450083 0.349978
11 1 0.318014 0.400464 0.497528
8 1 0.328884 0.440121 0.426192
9 1 0.326534 0.420339 0.446193
10 1 0.331757 0.414382 0.473127
14 1 0.257587 0.411712 0.545564
13 1 0.277958 0.402002 0.528455
12 1 0.301445 0.408437 0.519255
17 1 0.182457 0.390438 0.554034
18 1 0.155158 0.395107 0.559762
16 1 0.210297 0.397056 0.565041
15 1 0.228175 0.410308 0.555922
ITEM: TIMESTEP
33000
ITEM: NUMBER OF ATOMS
18
ITEM: BOX BOUNDS pp pp pp
-1.3500000000000000e+01 3.6500000000000000e+01
-2.5000000000000000e+01 2.5000000000000000e+01
-2.5000000000000000e+01 2.5000000000000000e+01
ITEM: ATOMS id type xs ys zs
5 1 0.279148 0.458933 0.371257
6 1 0.296464 0.430832 0.371077
1 1 0.238088 0.467471 0.285135
2 1 0.240991 0.486434 0.308207
3 1 0.255761 0.488926 0.336182
4 1 0.257414 0.474016 0.35946
7 1 0.318395 0.416611 0.373638
8 1 0.320971 0.400359 0.394673
9 1 0.337959 0.395692 0.420024
13 1 0.281891 0.40411 0.507637
12 1 0.301931 0.393447 0.491489
11 1 0.31583 0.384656 0.467706
10 1 0.331213 0.398096 0.447509
17 1 0.210184 0.41623 0.584385
18 1 0.200207 0.431484 0.608259
16 1 0.235404 0.403033 0.579523
15 1 0.254337 0.397836 0.553038
14 1 0.276583 0.408697 0.533531
ITEM: TIMESTEP
34000
ITEM: NUMBER OF ATOMS
18
ITEM: BOX BOUNDS pp pp pp
-1.3500000000000000e+01 3.6500000000000000e+01
-2.5000000000000000e+01 2.5000000000000000e+01
-2.5000000000000000e+01 2.5000000000000000e+01
ITEM: ATOMS id type xs ys zs
1 1 0.207211 0.526815 0.319038
5 1 0.26598 0.433978 0.340915
6 1 0.26713 0.41714 0.360406
7 1 0.275096 0.394383 0.376389
2 1 0.224143 0.507609 0.329097
3 1 0.241051 0.481917 0.322165
4 1 0.257997 0.465805 0.333239
8 1 0.279691 0.391544 0.402375
9 1 0.296224 0.376144 0.413191
10 1 0.305278 0.374466 0.438333
11 1 0.297761 0.366699 0.46614
13 1 0.276392 0.376362 0.515461
12 1 0.290765 0.376096 0.494485
14 1 0.283418 0.388618 0.542465
17 1 0.258011 0.423856 0.611783
18 1 0.259072 0.427762 0.636682
16 1 0.262168 0.411546 0.588593
15 1 0.271615 0.410284 0.563965
ITEM: TIMESTEP
35000
ITEM: NUMBER OF ATOMS
18
ITEM: BOX BOUNDS pp pp pp
-1.3500000000000000e+01 3.6500000000000000e+01
-2.5000000000000000e+01 2.5000000000000000e+01
-2.5000000000000000e+01 2.5000000000000000e+01
ITEM: ATOMS id type xs ys zs
5 1 0.248669 0.467765 0.346415
6 1 0.264221 0.447751 0.363092
7 1 0.26502 0.430099 0.390426
1 1 0.185204 0.509335 0.282241
2 1 0.213068 0.505242 0.288244
3 1 0.227801 0.482921 0.300069
4 1 0.249724 0.480137 0.321189
9 1 0.285317 0.407654 0.431391
10 1 0.28803 0.404475 0.456538
8 1 0.28306 0.420061 0.415185
11 1 0.272569 0.403541 0.48363
13 1 0.272957 0.431342 0.532956
12 1 0.267555 0.421064 0.50447
14 1 0.275193 0.450229 0.548458
17 1 0.301831 0.464551 0.620029
16 1 0.302294 0.448505 0.59115
15 1 0.297067 0.454577 0.564018
18 1 0.312321 0.468046 0.644831
ITEM: TIMESTEP
36000
ITEM: NUMBER OF ATOMS
18
ITEM: BOX BOUNDS pp pp pp
-1.3500000000000000e+01 3.6500000000000000e+01
-2.5000000000000000e+01 2.5000000000000000e+01
-2.5000000000000000e+01 2.5000000000000000e+01
ITEM: ATOMS id type xs ys zs
1 1 0.173116 0.518056 0.305718