LAMMPS (29 Aug 2024)
  using 8 OpenMP thread(s) per MPI task
Reading data file ...
  orthogonal box = (-13.5 -25 -25) to (36.5 25 25)
  1 by 1 by 1 MPI processor grid
  reading atoms ...
  18 atoms
  scanning bonds ...
  1 = max bonds/atom
  scanning angles ...
  1 = max angles/atom
  scanning dihedrals ...
  1 = max dihedrals/atom
  orthogonal box = (-13.5 -25 -25) to (36.5 25 25)
  1 by 1 by 1 MPI processor grid
  reading bonds ...
  17 bonds
  reading angles ...
  16 angles
  reading dihedrals ...
  15 dihedrals
Finding 1-2 1-3 1-4 neighbors ...
  special bond factors lj:    0        0        0       
  special bond factors coul:  0        0        0       
     2 = max # of 1-2 neighbors
     2 = max # of 1-3 neighbors
     4 = max # of 1-4 neighbors
     6 = max # of special neighbors
  special bonds CPU = 0.000 seconds
  read_data CPU = 0.003 seconds
18 atoms in group hep

CITE-CITE-CITE-CITE-CITE-CITE-CITE-CITE-CITE-CITE-CITE-CITE-CITE

Your simulation uses code contributions which should be cited:
- Type Label Framework: https://doi.org/10.1021/acs.jpcb.3c08419
The log file lists these citations in BibTeX format.

CITE-CITE-CITE-CITE-CITE-CITE-CITE-CITE-CITE-CITE-CITE-CITE-CITE

Generated 0 of 0 mixed pair_coeff terms from geometric mixing rule
Neighbor list info ...
  update: every = 1 steps, delay = 0 steps, check = yes
  max neighbors/atom: 2000, page size: 100000
  master list distance cutoff = 7.44
  ghost atom cutoff = 7.44
  binsize = 3.72, bins = 14 14 14
  2 neighbor lists, perpetual/occasional/extra = 2 0 0
  (1) pair lj/cut, perpetual, trim from (2)
      attributes: half, newton on, cut 2.8
      pair build: trim
      stencil: none
      bin: none
  (2) pair coul/debye, perpetual
      attributes: half, newton on
      pair build: half/bin/newton
      stencil: half/bin/3d
      bin: standard
Setting up cg style minimization ...
  Unit style    : lj
  Current step  : 0
Per MPI rank memory allocation (min/avg/max) = 17.62 | 17.62 | 17.62 Mbytes
   Step          Temp          TotEng         KinEng         PotEng         E_pair         E_coul         E_vdwl         E_bond        E_angle        E_dihed    
         0   0              1.2734053      0              1.2734053      0.11040365     0.11040365     0              0.0012992263   0.0078800519   1.1538224    
       100   0              1.2333604      0              1.2333604      0.109488       0.109488       0              0.0006069991   0.00023035579  1.123035     
       200   0              1.2331017      0              1.2331017      0.10932927     0.10932927     0              0.00069257565  0.00022417218  1.1228557    
       300   0              1.2330917      0              1.2330917      0.10934006     0.10934006     0              0.00066869399  0.00022045024  1.1228625    
       400   0              1.2330916      0              1.2330916      0.1093377      0.1093377      0              0.00066914941  0.00022090704  1.1228638    
       500   0              1.2330916      0              1.2330916      0.10933736     0.10933736     0              0.00066913404  0.00022097775  1.1228641    
       600   0              1.2330916      0              1.2330916      0.10933715     0.10933715     0              0.00066920014  0.00022102444  1.1228642    
       700   0              1.2330916      0              1.2330916      0.1093371      0.1093371      0              0.00066920347  0.00022103796  1.1228642    
       800   0              1.2330916      0              1.2330916      0.10933709     0.10933709     0              0.0006692061   0.0002210398   1.1228643    
       900   0              1.2330916      0              1.2330916      0.10933709     0.10933709     0              0.00066920621  0.00022104015  1.1228643    
      1000   0              1.2330916      0              1.2330916      0.10933709     0.10933709     0              0.0006692062   0.00022104018  1.1228643    
      1017   0              1.2330916      0              1.2330916      0.10933709     0.10933709     0              0.0006692062   0.00022104018  1.1228643    
Loop time of 0.0108349 on 8 procs for 1017 steps with 18 atoms

758.1% CPU use with 1 MPI tasks x 8 OpenMP threads

Minimization stats:
  Stopping criterion = force tolerance
  Energy initial, next-to-last, final = 
         1.27340531622   1.23309158756154   1.23309158756154
  Force two-norm initial, final = 1.7635967 6.9325533e-09
  Force max component initial, final = 0.79908538 2.5529445e-09
  Final line search alpha, max atom move = 1 2.5529445e-09
  Iterations, force evaluations = 1017 2040

MPI task timing breakdown:
Section |  min time  |  avg time  |  max time  |%varavg| %total
---------------------------------------------------------------
Pair    | 0.0029953  | 0.0029953  | 0.0029953  |   0.0 | 27.65
Bond    | 0.0057849  | 0.0057849  | 0.0057849  |   0.0 | 53.39
Neigh   | 0.00015146 | 0.00015146 | 0.00015146 |   0.0 |  1.40
Comm    | 0.0001845  | 0.0001845  | 0.0001845  |   0.0 |  1.70
Output  | 0.00016223 | 0.00016223 | 0.00016223 |   0.0 |  1.50
Modify  | 0          | 0          | 0          |   0.0 |  0.00
Other   |            | 0.001556   |            |       | 14.37

Nlocal:             18 ave          18 max          18 min
Histogram: 1 0 0 0 0 0 0 0 0 0
Nghost:              0 ave           0 max           0 min
Histogram: 1 0 0 0 0 0 0 0 0 0
Neighs:              0 ave           0 max           0 min
Histogram: 1 0 0 0 0 0 0 0 0 0

Total # of neighbors = 0
Ave neighs/atom = 0
Ave special neighs/atom = 5.3333333
Neighbor list builds = 13
Dangerous builds = 0
Generated 0 of 0 mixed pair_coeff terms from geometric mixing rule
Setting up Verlet run ...
  Unit style    : lj
  Current step  : 1017
  Time step     : 0.005
Per MPI rank memory allocation (min/avg/max) = 17.5 | 17.5 | 17.5 Mbytes
   Step          Temp          TotEng         KinEng         PotEng         E_pair         E_coul         E_vdwl         E_bond        E_angle        E_dihed    
      1017   0              1.2330916      0              1.2330916      0.10933709     0.10933709     0              0.0006692062   0.00022104018  1.1228643    
      1100   0.59342403     2.3925448      0.84068405     1.5518607      0.10966327     0.10966327     0              0.16036596     0.10869953     1.173132     
      1200   0.67198033     2.7827032      0.95197214     1.8307311      0.10553892     0.10553892     0              0.25580838     0.20525144     1.2641324    
      1300   0.8158032      3.0881814      1.1557212      1.9324602      0.10699922     0.10699922     0              0.30774972     0.27217997     1.2455313    
      1400   0.69576067     3.3078426      0.98566096     2.3221816      0.10886273     0.10886273     0              0.58881968     0.37171938     1.2527798    
      1500   0.87644809     3.6653635      1.2416348      2.4237287      0.12153626     0.12153626     0              0.5971435      0.39187146     1.3131775    
      1600   1.0107725      3.914011       1.4319277      2.4820833      0.1324194      0.1324194      0              0.47437871     0.47912982     1.3961554    
      1700   0.9197843      3.605972       1.3030278      2.3029442      0.12515601     0.12515601     0              0.33511598     0.37843676     1.4642355    
      1800   0.94064315     3.5300522      1.3325778      2.1974744      0.12717852     0.12717852     0              0.32109896     0.23289455     1.5163024    
      1900   0.79496078     3.4986639      1.1261944      2.3724695      0.13939644     0.13939644     0              0.30980912     0.65760161     1.2656623    
      2000   0.92933027     3.9487714      1.3165512      2.6322202      0.1408254      0.1408254      0              0.43925862     0.41247114     1.639665     
      2100   1.0814799      3.9331005      1.5320966      2.4010039      0.13478391     0.13478391     0              0.45188149     0.34890777     1.4654307    
      2200   0.9079257      3.8522918      1.2862281      2.5660637      0.1246504      0.1246504      0              0.41793817     0.60258366     1.4208915    
      2300   1.21022        3.895277       1.7144784      2.1807986      0.11989045     0.11989045     0              0.22510646     0.46304169     1.37276      
      2400   0.75251505     3.8896139      1.066063       2.8235509      0.12464322     0.12464322     0              0.39537342     0.70061063     1.6029236    
      2500   1.0545561      4.047589       1.4939545      2.5536346      0.13189057     0.13189057     0              0.38130746     0.3425822      1.6978543    
      2600   0.97956524     4.0919497      1.3877174      2.7042322      0.15210476     0.15210476     0              0.20271351     0.94723922     1.4021747    
      2700   1.5315956      4.7375184      2.1697604      2.5677579      0.17117196     0.17117196     0              0.43276818     0.34835598     1.6154618    
      2800   1.1369856      4.4502597      1.6107297      2.8395301      0.17781413     0.17781413     0              0.47561257     0.63114422     1.5549592    
      2900   1.335076       4.5892814      1.8913577      2.6979237      0.16222745     0.16222745     0              0.47965881     0.41131116     1.6447263    
      3000   1.0018706      3.86675        1.4193167      2.4474333      0.17188912     0.17188912     0              0.25800816     0.3863415      1.6311945    
      3100   0.87448922     4.2004558      1.2388597      2.961596       0.17208259     0.17208259     0              0.27958596     0.82672432     1.6832032    
      3200   0.88949213     3.9221292      1.2601138      2.6620154      0.13880361     0.13880361     0              0.62762195     0.41488371     1.4807061    
      3300   1.195289       4.1145868      1.693326       2.4212607      0.11455216     0.11455216     0              0.40635403     0.41660305     1.4837515    
      3400   1.1379999      4.380614       1.6121666      2.7684474      0.10527036     0.10527036     0              0.69620797     0.48928109     1.477688     
      3500   1.4562956      4.2104398      2.0630855      2.1473544      0.12479265     0.12479265     0              0.32524906     0.23910454     1.4582081    
      3600   0.65116232     3.9118602      0.92247996     2.9893803      0.14621772     0.14621772     0              0.65561056     0.57832882     1.6092232    
      3700   0.99726759     4.0396088      1.4127958      2.626813       0.17282054     0.17282054     0              0.48493556     0.47966671     1.4893902    
      3800   1.0997022      4.2313725      1.5579114      2.6734612      0.16140258     0.16140258     0              0.32740444     0.50482077     1.6798334    
      3900   1.0687248      3.6605754      1.5140268      2.1465486      0.11872509     0.11872509     0              0.3006905      0.29791633     1.4292167    
      4000   0.70914206     3.3017051      1.0046179      2.2970872      0.10790799     0.10790799     0              0.45923576     0.23868822     1.4912552    
      4100   1.058371       3.8793112      1.4993589      2.3799523      0.12098979     0.12098979     0              0.5619942      0.34952334     1.347445     
      4200   0.74658267     3.9269842      1.0576588      2.8693254      0.11629628     0.11629628     0              0.41651633     0.65835633     1.6781565    
      4300   1.2629167      3.9218348      1.789132       2.1327028      0.10881991     0.10881991     0              0.35356006     0.25990096     1.4104218    
      4400   0.60123112     2.9900258      0.85174409     2.1382817      0.10058531     0.10058531     0              0.51518968     0.24982859     1.2726781    
      4500   0.83725668     3.4502586      1.1861136      2.264145       0.1062957      0.1062957      0              0.5126178      0.19800957     1.4472219    
      4600   0.91301554     3.4603337      1.2934387      2.166895       0.1091192      0.1091192      0              0.4621059      0.2238825      1.3717874    
      4700   0.70535539     3.2657811      0.99925346     2.2665277      0.11746933     0.11746933     0              0.43330978     0.40457281     1.3111757    
      4800   0.70360183     3.1924303      0.99676926     2.195661       0.11282639     0.11282639     0              0.49028599     0.25635813     1.3361905    
      4900   0.93810681     3.6285658      1.3289847      2.2995812      0.1227692      0.1227692      0              0.56353127     0.25163092     1.3616498    
      5000   1.1842         4.0177961      1.6776167      2.3401794      0.1266432      0.1266432      0              0.45493254     0.35203896     1.4065647    
      5100   1.1885866      3.9968632      1.683831       2.3130322      0.10624161     0.10624161     0              0.34895222     0.46580247     1.3920359    
      5200   1.3895998      4.3028647      1.9685997      2.334265       0.098302991    0.098302991    0              0.48260786     0.27342836     1.4799258    
      5300   1.580348       4.3609382      2.2388263      2.1221119      0.10081178     0.10081178     0              0.49135822     0.25937945     1.2705624    
      5400   1.4155942      4.3032134      2.0054251      2.2977883      0.097570392    0.097570392    0              0.49205867     0.23399426     1.474165     
      5500   1.0755537      4.0489141      1.5237011      2.525213       0.091849152    0.091849152    0              0.60472362     0.51057465     1.3180656    
      5600   1.0093143      3.7201539      1.4298619      2.290292       0.08985064     0.08985064     0              0.53613562     0.19629268     1.4680131    
      5700   1.0245606      3.6849202      1.4514608      2.2334594      0.091310919    0.091310919    0              0.45579093     0.32420178     1.3621558    
      5800   0.98007676     3.8262479      1.3884421      2.4378058      0.088584332    0.088584332    0              0.50877582     0.325642       1.5148037    
      5900   1.026333       3.9500458      1.4539718      2.496074       0.090577849    0.090577849    0              0.49053389     0.43429827     1.480664     
      6000   1.2337695      4.1360966      1.7478402      2.3882564      0.090082435    0.090082435    0              0.48747069     0.31876434     1.4919389    
      6100   1.2836049      4.1365584      1.8184403      2.3181181      0.098419697    0.098419697    0              0.36391225     0.44560404     1.4101821    
      6200   1.0086664      4.0948311      1.428944       2.6658871      0.10025263     0.10025263     0              0.5851972      0.43544631     1.544991     
      6300   1.0843017      4.1693091      1.536094       2.6332151      0.098392796    0.098392796    0              0.43505521     0.70836323     1.3914039    
      6400   0.92563772     4.1116791      1.3113201      2.800359       0.1014448      0.1014448      0              0.48221493     0.6486835      1.5680158    
      6500   1.3113901      4.2307274      1.8578027      2.3729248      0.11541412     0.11541412     0              0.45942447     0.46327796     1.3348082    
      6600   1.2040219      3.9779477      1.7056977      2.27225        0.12107561     0.12107561     0              0.20236341     0.51808683     1.4307241    
      6700   0.88776453     3.9610923      1.2576664      2.7034259      0.12893861     0.12893861     0              0.42825871     0.7561318      1.3900968    
      6800   0.77078905     3.5863661      1.0919512      2.494415       0.11724838     0.11724838     0              0.4104707      0.43022949     1.5364664    
      6900   0.87437524     3.8043015      1.2386983      2.5656033      0.11118422     0.11118422     0              0.36564044     0.39318333     1.6955953    
      7000   0.77791482     3.5492536      1.102046       2.4472076      0.1168798      0.1168798      0              0.27174343     0.38287084     1.6757135    
      7100   1.025565       3.8850519      1.4528837      2.4321682      0.12324971     0.12324971     0              0.51264062     0.27355615     1.5227217    
      7200   0.91811169     3.8746895      1.3006582      2.5740313      0.12454265     0.12454265     0              0.47586136     0.36735667     1.6062706    
      7300   1.0005634      3.8758627      1.4174648      2.4583979      0.11319314     0.11319314     0              0.4046557      0.52794168     1.4126074    
      7400   1.2128088      4.1701565      1.7181458      2.4520107      0.11650856     0.11650856     0              0.53547023     0.4149237      1.3851082    
      7500   1.0430457      4.0614564      1.4776481      2.5838083      0.11570896     0.11570896     0              0.40970192     0.47055024     1.5878472    
      7600   1.1609121      4.4634663      1.6446255      2.8188408      0.10551546     0.10551546     0              0.47704824     0.79213309     1.444144     
      7700   1.0250871      4.2864099      1.4522067      2.8342032      0.098933019    0.098933019    0              0.62843483     0.64023266     1.4666026    
      7800   1.4681521      4.7739777      2.0798822      2.6940955      0.10605247     0.10605247     0              0.664501       0.34982459     1.5737174    
      7900   1.3648273      4.7493785      1.9335054      2.8158731      0.11683294     0.11683294     0              0.64448993     0.65923792     1.3953123    
      8000   1.4076385      4.605645       1.9941546      2.6114904      0.11329257     0.11329257     0              0.30528843     0.55286708     1.6400423    
      8100   1.3303584      4.4725351      1.8846743      2.5878608      0.096493438    0.096493438    0              0.63190839     0.39451811     1.4649409    
      8200   1.1762754      4.0097545      1.6663902      2.3433643      0.094301078    0.094301078    0              0.43744581     0.33884343     1.472774     
      8300   1.0740326      3.9145801      1.5215462      2.3930339      0.10802471     0.10802471     0              0.4093694      0.4560221      1.4196177    
      8400   0.97249946     3.5995978      1.3777076      2.2218903      0.10293377     0.10293377     0              0.34682291     0.40935094     1.3627826    
      8500   1.3059314      4.2015552      1.8500694      2.3514858      0.10270873     0.10270873     0              0.43186391     0.33103515     1.485878     
      8600   1.0868211      3.9440855      1.5396632      2.4044223      0.11069058     0.11069058     0              0.40173294     0.29274595     1.5992529    
      8700   1.1528404      3.9705084      1.6331906      2.3373178      0.10449752     0.10449752     0              0.41100568     0.44324905     1.3785656    
      8800   0.95751132     3.6551091      1.3564744      2.2986348      0.095511929    0.095511929    0              0.56341331     0.35847367     1.2812359    
      8900   0.93875811     3.3993363      1.3299073      2.069429       0.095489816    0.095489816    0              0.33101479     0.30455243     1.3383719    
      9000   0.85817159     3.3775047      1.2157431      2.1617616      0.10196974     0.10196974     0              0.39342393     0.27273174     1.3936362    
      9100   1.0487697      3.7130598      1.485757       2.2273027      0.098123013    0.098123013    0              0.45001234     0.32577331     1.3533941    
      9200   1.0350418      3.7531526      1.4663093      2.2868433      0.086807776    0.086807776    0              0.4120073      0.35339247     1.4346358    
      9300   0.92131097     3.7295482      1.3051905      2.4243576      0.094678958    0.094678958    0              0.3608228      0.43272271     1.5361332    
      9400   1.225182       3.9080202      1.7356745      2.1723456      0.096810379    0.096810379    0              0.42698589     0.30060266     1.3479467    
      9500   0.74891945     3.4797114      1.0609692      2.4187422      0.096482066    0.096482066    0              0.47690882     0.36246523     1.482886     
      9600   0.91566959     3.5477064      1.2971986      2.2505078      0.09444119     0.09444119     0              0.40122216     0.3944582      1.3603862    
      9700   1.0619128      3.6210782      1.5043764      2.1167018      0.092628266    0.092628266    0              0.26629903     0.47020022     1.2875743    
      9800   0.86502087     3.4077162      1.2254462      2.18227        0.092451563    0.092451563    0              0.30212263     0.48246108     1.3052347    
      9900   0.98780386     3.4971411      1.3993888      2.0977523      0.094147711    0.094147711    0              0.37892926     0.23537704     1.3892983    
     10000   0.9933992      3.6058084      1.4073155      2.1984928      0.098261057    0.098261057    0              0.42836793     0.24128588     1.430578     
     10100   1.0387841      3.8069333      1.4716108      2.3353225      0.091791426    0.091791426    0              0.4940942      0.38575017     1.3636867    
     10200   1.2516498      4.2364546      1.7731705      2.4632841      0.089594607    0.089594607    0              0.70414625     0.19005254     1.4794907    
     10300   1.208531       3.8867369      1.7120857      2.1746512      0.10451938     0.10451938     0              0.29316336     0.45288594     1.3240825    
     10400   1.0169266      3.6470926      1.440646       2.2064466      0.11018036     0.11018036     0              0.53604637     0.15292107     1.4072988    
     10500   0.84554429     3.8477503      1.1978544      2.6498959      0.11229088     0.11229088     0              0.59338019     0.416879       1.5273458    
     10600   0.9109572      3.894584       1.2905227      2.6040613      0.12006613     0.12006613     0              0.54423196     0.46348936     1.4762738    
     10700   0.96850591     4.0152989      1.37205        2.6432489      0.11668181     0.11668181     0              0.73003903     0.4673909      1.3291372    
     10800   0.94531957     4.4481976      1.3392027      3.1089948      0.11833149     0.11833149     0              0.83656036     0.52249502     1.631608     
     10900   1.2002308      4.2737835      1.700327       2.5734565      0.11222726     0.11222726     0              0.47994836     0.60133136     1.3799495    
     11000   1.2913445      4.7478644      1.8294047      2.9184597      0.11103048     0.11103048     0              1.1424831      0.336123       1.3288231    
     11100   1.1350162      3.9405183      1.6079397      2.3325786      0.11043901     0.11043901     0              0.51420036     0.42256503     1.2853742    
     11200   1.5399044      4.6739136      2.1815312      2.4923823      0.12576679     0.12576679     0              0.43329314     0.56289618     1.3704262    
     11300   1.130128       4.406359       1.6010147      2.8053444      0.14654955     0.14654955     0              0.66331154     0.68166699     1.3138163    
     11400   1.4216769      4.6592431      2.0140422      2.6452009      0.13335283     0.13335283     0              0.64966431     0.41752765     1.4446561    
     11500   1.2511922      4.448432       1.7725223      2.6759097      0.12211231     0.12211231     0              0.56337931     0.51464093     1.4757771    
     11600   0.94149009     4.2234927      1.3337776      2.8897151      0.10720739     0.10720739     0              0.86820039     0.40846275     1.5058445    
     11700   0.79185572     3.6011371      1.1217956      2.4793415      0.1111925      0.1111925      0              0.53547306     0.56781071     1.2648652    
     11800   1.0531417      3.7679428      1.4919507      2.2759921      0.11474756     0.11474756     0              0.37939441     0.41692933     1.3649208    
     11900   0.96220622     3.8711017      1.3631255      2.5079762      0.11871282     0.11871282     0              0.59309237     0.4463177      1.3498534    
     12000   1.0891403      4.4369394      1.5429488      2.8939906      0.12277969     0.12277969     0              0.64475831     0.57500264     1.55145      
     12100   1.1841188      4.2465096      1.6775016      2.569008       0.10692153     0.10692153     0              0.25253604     0.67355708     1.5359933    
     12200   1.2112141      4.578636       1.7158866      2.8627494      0.11235713     0.11235713     0              0.75193433     0.39864402     1.5998139    
     12300   1.2647878      4.302227       1.7917826      2.5104443      0.10983694     0.10983694     0              0.37530762     0.55003193     1.4752679    
     12400   1.0697387      4.4742931      1.5154631      2.95883        0.098235828    0.098235828    0              1.0407408      0.45304111     1.3668123    
     12500   1.0415564      4.02842        1.4755383      2.5528817      0.095183513    0.095183513    0              0.63106684     0.38119419     1.4454372    
     12600   1.1091717      3.8846277      1.5713265      2.3133012      0.10378596     0.10378596     0              0.52758545     0.30878504     1.3731448    
     12700   0.99188365     3.8917411      1.4051685      2.4865726      0.090609784    0.090609784    0              0.48516547     0.38811524     1.5226821    
     12800   1.2169377      4.2093242      1.723995       2.4853291      0.091907955    0.091907955    0              0.78410908     0.25788912     1.351423     
     12900   1.1458178      4.2623553      1.6232419      2.6391134      0.10273463     0.10273463     0              0.38509631     0.71311268     1.4381698    
     13000   0.99279245     3.7312726      1.406456       2.3248166      0.089223893    0.089223893    0              0.42163538     0.47626151     1.3376959    
     13100   1.1053409      3.7543658      1.5658996      2.1884662      0.08678008     0.08678008     0              0.4799613      0.26082968     1.3608951    
     13200   0.82937007     3.2939616      1.1749409      2.1190206      0.095557334    0.095557334    0              0.33289261     0.3023293      1.3882414    
     13300   0.92508339     3.4615309      1.3105348      2.1509961      0.10811457     0.10811457     0              0.37683275     0.26699586     1.3990529    
     13400   0.97045932     3.8531309      1.3748174      2.4783135      0.11098201     0.11098201     0              0.27330447     0.57851001     1.515517     
     13500   0.97987998     4.2340166      1.3881633      2.8458533      0.11012539     0.11012539     0              0.76946788     0.4977988      1.4684612    
     13600   1.1670846      4.124299       1.6533699      2.4709291      0.092648471    0.092648471    0              0.78193964     0.28989726     1.3064437    
     13700   1.0222636      3.8900452      1.4482068      2.4418384      0.10286355     0.10286355     0              0.79854934     0.1836777      1.3567478    
     13800   1.0105339      3.7373273      1.4315898      2.3057376      0.11187551     0.11187551     0              0.37657988     0.41136337     1.4059188    
     13900   1.0176002      3.6713545      1.4416003      2.2297543      0.10936984     0.10936984     0              0.31564522     0.43571057     1.3690286    
     14000   1.061131       3.8795563      1.5032689      2.3762875      0.10743981     0.10743981     0              0.69595085     0.24970959     1.3231872    
     14100   0.72634223     3.3465314      1.0289848      2.3175466      0.10105177     0.10105177     0              0.45043572     0.32149144     1.4445677    
     14200   0.94797604     3.3038029      1.3429661      1.9608368      0.11145167     0.11145167     0              0.30871045     0.23479494     1.3058797    
     14300   0.91828039     3.4062258      1.3008972      2.1053286      0.12562047     0.12562047     0              0.45365554     0.24343709     1.2826155    
     14400   0.76938915     3.3995568      1.089968       2.3095889      0.13304225     0.13304225     0              0.29192619     0.38137972     1.5032407    
     14500   1.0471922      3.9145918      1.4835223      2.4310695      0.13722035     0.13722035     0              0.14438749     0.52022699     1.6292347    
     14600   0.91127988     3.8483596      1.2909798      2.5573798      0.13909734     0.13909734     0              0.28643971     0.41443698     1.7174057    
     14700   0.82876168     4.0498651      1.1740791      2.875786       0.14240155     0.14240155     0              0.5249898      0.78247501     1.4259197    
     14800   1.3241539      4.2995347      1.8758848      2.4236499      0.1509381      0.1509381      0              0.25074515     0.53457495     1.4873917    
     14900   0.98965256     3.6662428      1.4020078      2.264235       0.15535472     0.15535472     0              0.27983826     0.33673794     1.4923041    
     15000   0.88805816     3.6666168      1.2580824      2.4085344      0.16685976     0.16685976     0              0.26759328     0.57420923     1.3998722    
     15100   0.91343754     3.973745       1.2940365      2.6797085      0.15068422     0.15068422     0              0.32777618     0.59217218     1.6090759    
     15200   0.82284435     3.4785817      1.1656962      2.3128856      0.1320507      0.1320507      0              0.37746786     0.38485741     1.4185096    
     15300   1.1776534      4.0379531      1.6683423      2.3696108      0.13411723     0.13411723     0              0.40244405     0.53560915     1.2974403    
     15400   1.0043835      3.8142333      1.4228766      2.3913567      0.13260667     0.13260667     0              0.51868445     0.38854576     1.3515198    
     15500   0.8433804      3.8906637      1.1947889      2.6958748      0.12525797     0.12525797     0              0.71208583     0.37358833     1.4849426    
     15600   1.206457       4.2165934      1.7091474      2.507446       0.13480272     0.13480272     0              0.44428408     0.44870878     1.4796504    
     15700   1.2507799      4.1384273      1.7719382      2.366489       0.10643251     0.10643251     0              0.62495987     0.24161485     1.3934818    
     15800   1.0110144      3.6819343      1.4322704      2.2496639      0.097507488    0.097507488    0              0.47977243     0.37824128     1.2941427    
     15900   0.84564311     3.5426417      1.1979944      2.3446473      0.10495641     0.10495641     0              0.40197053     0.39593119     1.4417891    
     16000   0.90461343     3.7445645      1.2815357      2.4630288      0.1180757      0.1180757      0              0.67370432     0.29014647     1.3811023    
     16100   0.87310161     3.7628666      1.2368939      2.5259727      0.1266011      0.1266011      0              0.6415921      0.44744568     1.3103338    
     16200   1.1013461      3.9062304      1.5602403      2.3459901      0.13595225     0.13595225     0              0.29483339     0.41509242     1.5001121    
     16300   1.245538       4.3949123      1.7645122      2.6304002      0.12356593     0.12356593     0              0.61250865     0.46791636     1.4264092    
     16400   1.1522075      4.1589123      1.632294       2.5266183      0.10359444     0.10359444     0              0.48852292     0.44603776     1.4884632    
     16500   1.1162019      4.0790708      1.581286       2.4977847      0.10269769     0.10269769     0              0.63688146     0.29020554     1.4680001    
     16600   1.4172122      4.1400153      2.0077173      2.1322979      0.11280291     0.11280291     0              0.39671942     0.19154363     1.431232     
     16700   1.3173071      4.256069       1.866185       2.389884       0.14237528     0.14237528     0              0.48076486     0.37331106     1.3934328    
     16800   1.1834898      4.5314083      1.6766105      2.8547978      0.14680794     0.14680794     0              0.68497416     0.61838892     1.4046268    
     16900   1.4304175      4.4168631      2.0264248      2.3904383      0.13042032     0.13042032     0              0.36493987     0.58670753     1.3083706    
     17000   1.0959319      3.9578055      1.5525702      2.4052353      0.10570085     0.10570085     0              0.57105238     0.3314319      1.3970502    
     17100   1.0042699      4.0295689      1.4227157      2.6068532      0.095611556    0.095611556    0              0.71193799     0.37450059     1.424803     
     17200   0.8119605      4.4927657      1.1502774      3.3424883      0.095087363    0.095087363    0              0.93883505     0.87000385     1.4385621    
     17300   1.0420845      4.5852954      1.4762864      3.109009       0.103835       0.103835       0              0.69710435     0.6077196      1.7003501    
     17400   1.1056134      4.0316368      1.5662856      2.4653512      0.11290945     0.11290945     0              0.28691165     0.56759291     1.4979372    
     17500   0.939744       4.0761064      1.331304       2.7448024      0.12096449     0.12096449     0              0.66013137     0.43398488     1.5297217    
     17600   1.114746       3.751039       1.5792234      2.1718155      0.12494498     0.12494498     0              0.37676372     0.26860848     1.4014984    
     17700   1.1986691      4.4440208      1.6981146      2.7459062      0.12193722     0.12193722     0              0.66449497     0.69534839     1.2641257    
     17800   0.96975288     3.706303       1.3738166      2.3324865      0.1159631      0.1159631      0              0.40670774     0.37914599     1.4306696    
     17900   1.3590637      4.0485336      1.9253402      2.1231933      0.10846204     0.10846204     0              0.32501899     0.19253812     1.4971742    
     18000   1.2166316      3.9720666      1.7235615      2.2485051      0.1068967      0.1068967      0              0.54835885     0.22676056     1.366489     
     18100   1.5269354      4.3820947      2.1631585      2.2189362      0.10296098     0.10296098     0              0.47339326     0.3332197      1.3093622    
     18200   1.1204444      4.0490456      1.5872962      2.4617494      0.097119041    0.097119041    0              0.51607022     0.44095313     1.4076071    
     18300   1.1677661      4.1882503      1.6543352      2.5339151      0.096833374    0.096833374    0              0.76032311     0.21534455     1.4614141    
     18400   0.66491369     3.922236       0.94196106     2.9802749      0.10441194     0.10441194     0              0.9547396      0.47380953     1.4473138    
     18500   1.1073304      3.9009064      1.568718       2.3321884      0.10010637     0.10010637     0              0.4887598      0.38790568     1.3554165    
     18600   1.1090491      3.918893       1.571153       2.3477401      0.10941595     0.10941595     0              0.4289842      0.47257255     1.3367674    
     18700   0.89660058     3.457889       1.2701841      2.1877049      0.11038633     0.11038633     0              0.38012673     0.38177474     1.3154171    
     18800   1.1542248      3.9056923      1.6351518      2.2705405      0.11070108     0.11070108     0              0.324022       0.5276094      1.3082081    
     18900   1.0768135      4.2109317      1.5254858      2.6854459      0.10891368     0.10891368     0              0.39391001     0.62799034     1.5546319    
     19000   1.061513       3.9639736      1.5038101      2.4601635      0.10911876     0.10911876     0              0.54007388     0.55481134     1.2561595    
     19100   1.2657989      4.1840375      1.793215       2.3908225      0.11147494     0.11147494     0              0.35098232     0.58758143     1.3407838    
     19200   1.0214882      3.9343622      1.4471083      2.4872539      0.10290097     0.10290097     0              0.51919675     0.47845986     1.3866963    
     19300   1.3628614      4.2918147      1.9307203      2.3610944      0.10800392     0.10800392     0              0.56716377     0.23062209     1.4553046    
     19400   1.0609582      3.8973591      1.5030241      2.394335       0.11976964     0.11976964     0              0.47921358     0.47691612     1.3184357    
     19500   1.0713152      3.6562453      1.5176966      2.1385487      0.11379544     0.11379544     0              0.32578687     0.3590431      1.3399233    
     19600   1.0965401      3.8584829      1.5534319      2.305051       0.1062192      0.1062192      0              0.47888582     0.32412902     1.3958169    
     19700   1.2067235      4.0704968      1.709525       2.3609718      0.10497287     0.10497287     0              0.33412672     0.43529129     1.4865809    
     19800   0.97236333     4.4603086      1.3775147      3.0827938      0.10754846     0.10754846     0              0.62690651     0.5416813      1.8066576    
     19900   1.3942239      4.4848369      1.9751506      2.5096863      0.10814827     0.10814827     0              0.40846795     0.65649738     1.3365727    
     20000   1.332827       4.1890521      1.8881716      2.3008805      0.094441955    0.094441955    0              0.45652869     0.47618473     1.2737251    
     20100   1.3520761      4.0194157      1.9154412      2.1039745      0.098417294    0.098417294    0              0.41077998     0.22667209     1.3681051    
     20200   0.72287172     3.7437853      1.0240683      2.7197171      0.11063861     0.11063861     0              0.48649853     0.43316669     1.6894132    
     20300   1.285643       4.3442778      1.8213277      2.5229502      0.10823947     0.10823947     0              0.51839467     0.36522123     1.5310948    
     20400   1.5693278      4.4020878      2.2232144      2.1788733      0.12104547     0.12104547     0              0.39292864     0.23213017     1.4327691    
     20500   1.1815468      4.2759374      1.673858       2.6020794      0.12872526     0.12872526     0              0.39615454     0.63112348     1.4460762    
     20600   0.98485051     3.8896993      1.3952049      2.4944944      0.10816653     0.10816653     0              0.3933558      0.54045868     1.4525134    
     20700   1.2203331      4.3426182      1.7288053      2.613813       0.095867944    0.095867944    0              0.44246261     0.56576148     1.5097209    
     20800   0.9854026      3.6935836      1.395987       2.2975966      0.099135932    0.099135932    0              0.4945399      0.43246384     1.2714569    
     20900   1.1094133      3.892241       1.5716689      2.3205721      0.097367803    0.097367803    0              0.5717929      0.34287157     1.3085398    
     21000   1.1040951      4.1210602      1.5641347      2.5569255      0.092543692    0.092543692    0              0.71023215     0.31983883     1.4343108    
     21100   0.90117467     3.830402       1.2766641      2.5537379      0.09880671     0.09880671     0              0.44256951     0.42313244     1.5892292    
     21200   1.3943812      4.4040159      1.9753734      2.4286425      0.11483939     0.11483939     0              0.54833545     0.25742108     1.5080465    
     21300   1.0988245      3.9403933      1.556668       2.3837253      0.12725661     0.12725661     0              0.3780051      0.40929971     1.4691639    
     21400   1.1342829      3.8986654      1.6069008      2.2917646      0.12060985     0.12060985     0              0.53358084     0.28587521     1.3516987    
     21500   1.2591909      4.2029645      1.7838538      2.4191107      0.10891599     0.10891599     0              0.47611653     0.4611363      1.3729418    
     21600   1.3061354      4.455961       1.8503584      2.6056026      0.092844129    0.092844129    0              0.76815501     0.27909738     1.4655061    
     21700   0.99924463     4.1743467      1.4155966      2.7587502      0.098417059    0.098417059    0              0.72307903     0.59570326     1.3415508    
     21800   1.2575498      4.2193849      1.7815289      2.437856       0.10843546     0.10843546     0              0.54233929     0.31644492     1.4706363    
     21900   0.89781388     3.5942868      1.271903       2.3223838      0.11438381     0.11438381     0              0.41383905     0.31167201     1.4824889    
     22000   0.88877267     3.4885405      1.2590946      2.2294459      0.11302701     0.11302701     0              0.41756145     0.38448196     1.3143755    
     22100   0.85351974     3.2595313      1.209153       2.0503783      0.10207242     0.10207242     0              0.16853132     0.29035773     1.4894168    
     22200   0.91254721     3.8217068      1.2927752      2.5289315      0.10216724     0.10216724     0              0.5054109      0.43451243     1.486841     
     22300   0.89934231     3.4110965      1.2740683      2.1370282      0.10230141     0.10230141     0              0.33603529     0.19924538     1.4994462    
     22400   1.1469629      3.9384064      1.6248642      2.3135423      0.11957868     0.11957868     0              0.45829465     0.37332496     1.362344     
     22500   1.1852303      4.3721055      1.6790763      2.6930293      0.13748554     0.13748554     0              0.52047147     0.667484       1.3675883    
     22600   1.2129892      4.1030019      1.7184014      2.3846005      0.15572974     0.15572974     0              0.3462909      0.36293524     1.5196447    
     22700   1.2107394      4.4339562      1.7152142      2.718742       0.15109654     0.15109654     0              0.40690675     0.83380574     1.326933     
     22800   1.2028872      4.2144451      1.7040902      2.5103549      0.13404548     0.13404548     0              0.56120948     0.43279103     1.3823089    
     22900   0.95910992     3.9071299      1.3587391      2.5483908      0.12555747     0.12555747     0              0.66336556     0.12897664     1.6304912    
     23000   1.1601966      4.0885008      1.6436118      2.444889       0.10332688     0.10332688     0              0.40701825     0.40765251     1.5268913    
     23100   1.1288597      3.8727378      1.5992178      2.2735199      0.10009294     0.10009294     0              0.39179405     0.32850179     1.4531311    
     23200   0.94171126     3.6702227      1.334091       2.3361318      0.10197417     0.10197417     0              0.37439891     0.36755827     1.4922004    
     23300   1.0617386      3.7924182      1.5041297      2.2882885      0.1020503      0.1020503      0              0.43172033     0.40739692     1.3471209    
     23400   0.95256886     3.532696       1.3494726      2.1832234      0.1119673      0.1119673      0              0.30010121     0.4082138      1.3629411    
     23500   0.83602839     3.6783         1.1843736      2.4939264      0.10917546     0.10917546     0              0.26134062     0.72738468     1.3960256    
     23600   1.1733397      3.6125234      1.6622312      1.9502922      0.10478308     0.10478308     0              0.25065472     0.15210773     1.4427467    
     23700   1.1096727      4.1826183      1.5720363      2.610582       0.10366995     0.10366995     0              0.59091909     0.43796574     1.4780272    
     23800   1.192173       4.6340555      1.6889117      2.9451438      0.095769948    0.095769948    0              0.86477254     0.60845785     1.3761435    
     23900   1.1049363      4.2992887      1.5653265      2.7339622      0.092527644    0.092527644    0              0.89814854     0.40364772     1.3396383    
     24000   1.1930825      4.2882937      1.6902002      2.5980935      0.10342096     0.10342096     0              0.45673609     0.57234317     1.4655933    
     24100   1.1138285      4.018308       1.5779238      2.4403842      0.11393746     0.11393746     0              0.42314223     0.54184867     1.3614558    
     24200   0.93387648     4.0470584      1.3229917      2.7240667      0.11411046     0.11411046     0              0.5439261      0.49223123     1.5737989    
     24300   1.0277037      4.2492891      1.4559136      2.7933756      0.11529869     0.11529869     0              0.4228546      0.80670261     1.4485197    
     24400   1.3008934      4.2006296      1.8429323      2.3576973      0.10857546     0.10857546     0              0.4513568      0.48937697     1.3083881    
     24500   1.172925       4.5156621      1.6616437      2.8540184      0.092679896    0.092679896    0              0.77476544     0.55658977     1.4299833    
     24600   1.1471979      4.7349091      1.625197       3.1097121      0.08671124     0.08671124     0              1.0335946      0.61873697     1.3706692    
     24700   1.4996556      4.7014333      2.1245121      2.5769212      0.08274313     0.08274313     0              0.47497162     0.51823772     1.5009687    
     24800   1.2815852      4.2991051      1.815579       2.4835261      0.086096605    0.086096605    0              0.64485158     0.40686854     1.3457094    
     24900   1.280297       3.9214642      1.8137541      2.1077101      0.082874635    0.082874635    0              0.39094835     0.26207271     1.3718144    
     25000   1.0227932      3.7500774      1.448957       2.3011204      0.086351554    0.086351554    0              0.55862386     0.18860505     1.46754      
     25100   0.87135635     3.7306493      1.2344215      2.4962278      0.092727057    0.092727057    0              0.69735993     0.38957206     1.3165687    
     25200   1.0621247      3.6958075      1.5046766      2.1911309      0.095212869    0.095212869    0              0.41872697     0.29985298     1.3773381    
     25300   1.0546429      3.5895865      1.4940775      2.095509       0.09843734     0.09843734     0              0.40170723     0.27785537     1.3175091    
     25400   0.89449768     3.6138593      1.267205       2.3466543      0.10063624     0.10063624     0              0.52636904     0.25973731     1.4599117    
     25500   1.1454999      3.9087351      1.6227916      2.2859435      0.10618857     0.10618857     0              0.23079198     0.34300322     1.6059597    
     25600   0.92799258     4.0019007      1.3146562      2.6872446      0.10882847     0.10882847     0              0.49336374     0.56812883     1.5169235    
     25700   1.0770253      3.7077678      1.5257858      2.1819821      0.11527835     0.11527835     0              0.30046612     0.31672235     1.4495152    
     25800   0.86422429     3.4378817      1.2243178      2.2135639      0.10395827     0.10395827     0              0.20349178     0.54885446     1.3572594    
     25900   1.0209003      3.9632387      1.4462754      2.5169633      0.11395269     0.11395269     0              0.41674567     0.40100491     1.5852601    
     26000   1.0423556      3.6948228      1.4766704      2.2181524      0.12867931     0.12867931     0              0.25109657     0.375606       1.4627705    
     26100   0.78574268     3.6375695      1.1131355      2.5244341      0.10798211     0.10798211     0              0.51141292     0.57231281     1.3327262    
     26200   1.0989354      3.9577602      1.5568252      2.400935       0.098999616    0.098999616    0              0.23588405     0.6355859      1.4304655    
     26300   1.114118       3.9328796      1.5783338      2.3545458      0.10326569     0.10326569     0              0.40204448     0.47136955     1.3778661    
     26400   1.0151404      3.911335       1.4381156      2.4732194      0.11499009     0.11499009     0              0.42287254     0.53383063     1.4015262    
     26500   1.1404813      3.9576358      1.6156818      2.341954       0.12763419     0.12763419     0              0.27715853     0.23315822     1.7040031    
     26600   0.95113217     3.795262       1.3474372      2.4478247      0.12015681     0.12015681     0              0.32752815     0.42070486     1.5794349    
     26700   0.9098239      3.8905126      1.2889172      2.6015954      0.11421759     0.11421759     0              0.63749583     0.44752252     1.4023595    
     26800   0.92994554     3.5298522      1.3174229      2.2124294      0.11449488     0.11449488     0              0.41902901     0.29831419     1.3805913    
     26900   0.95034274     3.6895071      1.3463189      2.3431882      0.10937678     0.10937678     0              0.47314902     0.37823737     1.382425     
     27000   0.76482433     3.9153399      1.0835011      2.8318388      0.093464134    0.093464134    0              0.71311934     0.46229528     1.5629601    
     27100   1.1656275      4.2753063      1.6513057      2.6240006      0.10234698     0.10234698     0              0.58290307     0.37017191     1.5685786    
     27200   0.88264992     3.9198041      1.2504207      2.6693834      0.091530618    0.091530618    0              0.65325342     0.34267263     1.5819267    
     27300   0.91439974     4.2826458      1.2953996      2.9872461      0.092208706    0.092208706    0              0.79785389     0.61616669     1.4810169    
     27400   1.3118997      4.2532506      1.8585246      2.394726       0.10659283     0.10659283     0              0.41763151     0.26845755     1.6020441    
     27500   0.92937874     4.0149946      1.3166199      2.6983747      0.11927165     0.11927165     0              0.60626137     0.52422602     1.4486157    
     27600   1.324164       4.1720586      1.8758989      2.2961596      0.10871321     0.10871321     0              0.38239956     0.32586737     1.4791795    
     27700   1.0125673      4.2012925      1.4344703      2.7668222      0.09851011     0.09851011     0              0.79699864     0.33680062     1.5345128    
     27800   1.1366421      3.9311897      1.610243       2.3209466      0.09496202     0.09496202     0              0.32687784     0.35706083     1.5420459    
     27900   0.94039432     4.1549882      1.3322253      2.8227629      0.084116901    0.084116901    0              0.57618578     0.75485214     1.4076081    
     28000   1.063446       4.405036       1.5065486      2.8984874      0.079879081    0.079879081    0              0.90419382     0.45465487     1.4597596    
     28100   0.98779759     4.001999       1.3993799      2.6026191      0.088698798    0.088698798    0              0.49929223     0.52262888     1.4919992    
     28200   1.1284669      4.34748        1.5986614      2.7488186      0.11751291     0.11751291     0              0.48396324     0.61074067     1.5366018    
     28300   0.98619401     3.8329659      1.3971082      2.4358577      0.13651974     0.13651974     0              0.30831648     0.6148583      1.3761632    
     28400   0.85086695     3.9911181      1.2053948      2.7857233      0.14344373     0.14344373     0              0.54439566     0.57085547     1.5270284    
     28500   1.0586759      3.9244925      1.4997908      2.4247016      0.12585933     0.12585933     0              0.14834408     0.7355024      1.4149958    
     28600   1.1617594      4.1306194      1.6458258      2.4847936      0.1112885      0.1112885      0              0.47882631     0.50918144     1.3854973    
     28700   1.0772438      3.7275837      1.5260953      2.2014884      0.10031289     0.10031289     0              0.29326828     0.31803885     1.4898684    
     28800   1.1876192      4.0817043      1.6824605      2.3992438      0.10118395     0.10118395     0              0.38604207     0.61761886     1.2943989    
     28900   0.97507788     4.2944594      1.3813603      2.9130991      0.097538354    0.097538354    0              1.0218272      0.38671415     1.4070193    
     29000   1.0821931      4.1108422      1.533107       2.5777352      0.10545735     0.10545735     0              0.50134219     0.55974147     1.4111942    
     29100   1.4584002      4.5725499      2.066067       2.5064829      0.10671427     0.10671427     0              0.59573437     0.51680321     1.287231     
     29200   1.213148       3.9297478      1.7186263      2.2111215      0.099693972    0.099693972    0              0.47885715     0.34111691     1.2914534    
     29300   1.0603327      3.7787162      1.502138       2.2765782      0.10259007     0.10259007     0              0.19973815     0.52577083     1.4484791    
     29400   1.308804       4.4452468      1.854139       2.5911078      0.11274898     0.11274898     0              0.54349807     0.47329364     1.4615671    
     29500   0.88006941     3.8743281      1.246765       2.6275631      0.12646426     0.12646426     0              0.33178647     0.70249291     1.4668194    
     29600   1.1953229      3.9381459      1.6933741      2.2447718      0.12570396     0.12570396     0              0.30970244     0.45031396     1.3590514    
     29700   1.7212662      4.8479801      2.4384605      2.4095196      0.11316936     0.11316936     0              0.49548268     0.32016005     1.4807075    
     29800   0.90338241     3.8794599      1.2797917      2.5996681      0.10017537     0.10017537     0              0.76038405     0.22697562     1.5121331    
     29900   0.90716957     3.6639361      1.2851569      2.3787792      0.10418314     0.10418314     0              0.43555152     0.57238374     1.2666608    
     30000   0.97702289     3.7076001      1.3841158      2.3234844      0.10558407     0.10558407     0              0.48640614     0.36416466     1.3673295    
     30100   1.0700909      4.0011667      1.5159622      2.4852045      0.11819509     0.11819509     0              0.3974748      0.58712179     1.3824128    
     30200   0.84703804     3.7202053      1.1999706      2.5202347      0.11698123     0.11698123     0              0.49406834     0.49172242     1.4174627    
     30300   1.0181176      3.5056118      1.4423333      2.0632785      0.10981786     0.10981786     0              0.22881608     0.35330344     1.3713411    
     30400   0.82125869     3.388906       1.1634498      2.2254562      0.11582281     0.11582281     0              0.1832845      0.5281661      1.3981828    
     30500   1.1170343      3.6423564      1.5824652      2.0598912      0.11984277     0.11984277     0              0.16377389     0.25408123     1.5221933    
     30600   1.0911512      3.9702356      1.5457975      2.4244381      0.12075418     0.12075418     0              0.45768933     0.44106727     1.4049273    
     30700   0.85129742     3.403059       1.2060047      2.1970543      0.12959572     0.12959572     0              0.38725591     0.37557468     1.304628     
     30800   0.76777943     3.332224       1.0876875      2.2445365      0.1252876      0.1252876      0              0.36678577     0.33987418     1.4125889    
     30900   0.77492715     3.2785828      1.0978135      2.1807693      0.11598108     0.11598108     0              0.46987508     0.24784963     1.3470635    
     31000   0.90838251     3.6112432      1.2868752      2.324368       0.11306798     0.11306798     0              0.42886769     0.41668561     1.3657467    
     31100   1.0462551      3.88673        1.4821947      2.4045353      0.10948284     0.10948284     0              0.46104698     0.50859363     1.3254119    
     31200   0.8879284      3.6621525      1.2578986      2.4042539      0.095475213    0.095475213    0              0.61513498     0.26176166     1.4318821    
     31300   1.1892673      3.7908788      1.6847953      2.1060836      0.10160994     0.10160994     0              0.50553894     0.13683113     1.3621036    
     31400   0.87848976     3.4589659      1.2445272      2.2144387      0.11168742     0.11168742     0              0.37100301     0.34264186     1.3891064    
     31500   1.0690614      3.7296132      1.5145036      2.2151096      0.10754082     0.10754082     0              0.39085036     0.35456185     1.3621566    
     31600   1.1924245      3.6585253      1.689268       1.9692573      0.093607442    0.093607442    0              0.45225612     0.17383518     1.2495585    
     31700   0.88327921     3.6396289      1.2513122      2.3883167      0.085641675    0.085641675    0              0.70610684     0.29761383     1.2989543    
     31800   1.1071144      3.7588663      1.568412       2.1904543      0.091191721    0.091191721    0              0.51648071     0.22531888     1.3574629    
     31900   0.72705996     3.3003228      1.0300016      2.2703212      0.1056322      0.1056322      0              0.4002171      0.31171781     1.4527541    
     32000   1.0379076      3.5722132      1.4703691      2.1018441      0.10684422     0.10684422     0              0.28605652     0.14995765     1.5589858    
     32100   0.85490074     3.267581       1.2111094      2.0564716      0.12444719     0.12444719     0              0.28385895     0.32899219     1.3191733    
     32200   0.77338675     3.4865767      1.0956312      2.3909454      0.12978718     0.12978718     0              0.51732052     0.3793438      1.3644939    
     32300   1.0725539      3.9977203      1.5194513      2.478269       0.1310803      0.1310803      0              0.32316819     0.61472651     1.409294     
     32400   1.1843812      4.1916005      1.6778733      2.5137271      0.13108763     0.13108763     0              0.43816609     0.47826094     1.4662125    
     32500   1.4426072      4.6021338      2.0436935      2.5584404      0.1055376      0.1055376      0              0.65796629     0.33739858     1.4575379    
     32600   1.1795456      3.9835339      1.671023       2.3125109      0.10845617     0.10845617     0              0.5295753      0.11260995     1.5618695    
     32700   1.3894714      4.1847038      1.9684179      2.2162859      0.13725352     0.13725352     0              0.25978731     0.25734235     1.5619027    
     32800   1.2822842      4.1450945      1.8165693      2.3285251      0.15918179     0.15918179     0              0.39300379     0.2478479      1.5284917    
     32900   1.1756937      4.5033579      1.6655661      2.8377917      0.14106581     0.14106581     0              0.50326533     0.53088209     1.6625785    
     33000   0.9924736      4.0645937      1.4060043      2.6585895      0.12262968     0.12262968     0              0.42459095     0.45676115     1.6546077    
     33100   0.84890391     3.7946759      1.2026139      2.5920621      0.11871233     0.11871233     0              0.50020017     0.52412835     1.4490212    
     33200   1.1447864      3.8948126      1.6217807      2.2730319      0.10999808     0.10999808     0              0.48270854     0.41725842     1.2630669    
     33300   1.1622355      4.0574563      1.6465003      2.410956       0.11428513     0.11428513     0              0.53032914     0.44874115     1.3176006    
     33400   1.0001881      3.9728943      1.4169331      2.5559611      0.11069278     0.11069278     0              0.58032646     0.48897373     1.3759682    
     33500   1.0434452      4.0483837      1.4782141      2.5701696      0.10147992     0.10147992     0              0.51862553     0.27296191     1.6771023    
     33600   0.8901731      4.2643313      1.2610786      3.0032527      0.1159147      0.1159147      0              0.93938173     0.43584202     1.5121143    
     33700   1.5406901      4.6110546      2.1826443      2.4284104      0.12297585     0.12297585     0              0.40986824     0.37410646     1.5214598    
     33800   0.90898289     3.9317467      1.2877258      2.6440209      0.12480044     0.12480044     0              0.76348217     0.35379305     1.4019453    
     33900   1.0244398      4.1922578      1.4512897      2.7409681      0.12373793     0.12373793     0              0.82043151     0.41209244     1.3847062    
     34000   1.0665076      4.0460113      1.5108858      2.5351255      0.10531713     0.10531713     0              0.52333921     0.5195757      1.3868934    
     34100   0.93738066     4.1772271      1.3279559      2.8492712      0.087377624    0.087377624    0              0.67442889     0.3897613      1.6977033    
     34200   1.0422847      4.2730852      1.47657        2.7965152      0.084273496    0.084273496    0              0.94044904     0.30070516     1.4710875    
     34300   0.96584246     3.8230924      1.3682768      2.4548156      0.10111067     0.10111067     0              0.62218117     0.40883532     1.3226885    
     34400   1.1297478      3.8659643      1.6004761      2.2654882      0.099187359    0.099187359    0              0.32783132     0.4189196      1.4195499    
     34500   1.0287302      4.1568849      1.4573678      2.6995171      0.093852401    0.093852401    0              0.80164902     0.31154852     1.4924672    
     34600   1.3431527      3.9532744      1.9027997      2.0504747      0.1045741      0.1045741      0              0.38269577     0.27555736     1.2876475    
     34700   1.0846272      3.9548022      1.5365552      2.418247       0.10151848     0.10151848     0              0.39504862     0.56239415     1.3592857    
     34800   1.028504       3.6118385      1.4570473      2.1547912      0.10004062     0.10004062     0              0.19937251     0.38614584     1.4692322    
     34900   1.0465602      4.0256378      1.482627       2.5430108      0.099156598    0.099156598    0              0.5761938      0.41161614     1.4560443    
     35000   1.0414169      3.9929745      1.4753406      2.517634       0.1093478      0.1093478      0              0.71577498     0.33323405     1.3592771    
     35100   1.2075935      4.1591952      1.7107575      2.4484377      0.11739006     0.11739006     0              0.22458282     0.65092737     1.4555375    
     35200   0.81787339     3.7484656      1.158654       2.5898116      0.11845451     0.11845451     0              0.485191       0.38648702     1.5996791    
     35300   1.3000073      4.3497412      1.8416771      2.5080642      0.11455102     0.11455102     0              0.44315014     0.37699457     1.5733684    
     35400   0.94613364     4.1369369      1.340356       2.7965809      0.12494045     0.12494045     0              0.63561989     0.58032862     1.455692     
     35500   1.1053853      4.2467088      1.5659625      2.6807463      0.12787723     0.12787723     0              0.46695078     0.40560388     1.6803144    
     35600   1.1206206      4.2942307      1.5875459      2.7066848      0.11918235     0.11918235     0              0.4725112      0.5739802      1.5410111    
     35700   1.4524664      4.4903145      2.0576607      2.4326538      0.1137874      0.1137874      0              0.58437593     0.38995127     1.3445392    
     35800   1.1119692      4.5571164      1.5752897      2.9818266      0.094016717    0.094016717    0              0.94643817     0.674894       1.2664778    
     35900   1.2735362      4.2320263      1.8041763      2.4278499      0.096344682    0.096344682    0              0.61549644     0.28710014     1.4289087    
     36000   1.2096062      4.035661       1.7136087      2.3220523      0.10927918     0.10927918     0              0.53659571     0.28722683     1.3889505    
     36100   1.2224535      3.8721762      1.7318092      2.140367       0.098845611    0.098845611    0              0.36163574     0.32890105     1.3509846    
     36200   1.3586052      4.0827245      1.9246907      2.1580338      0.095936822    0.095936822    0              0.37014067     0.29402881     1.3979275    
     36300   1.3449872      4.261913       1.9053985      2.3565145      0.10059357     0.10059357     0              0.57009315     0.37129521     1.3145325    
     36400   1.0582304      3.9948789      1.4991597      2.4957192      0.097900595    0.097900595    0              0.63028415     0.36446968     1.4030648    
     36500   1.2455179      3.9205127      1.7644837      2.156029       0.093220821    0.093220821    0              0.46213098     0.3006678      1.3000094    
     36600   1.2958983      4.1745791      1.835856       2.3387232      0.091967106    0.091967106    0              0.70000839     0.22825913     1.3184885    
     36700   0.92629254     3.8572073      1.3122478      2.5449596      0.080430336    0.080430336    0              0.72792959     0.4095302      1.3270694    
     36800   0.83604823     3.6904791      1.1844017      2.5060775      0.08795188     0.08795188     0              0.6381795      0.50168258     1.2782635    
     36900   0.91601814     3.5858497      1.2976924      2.2881573      0.096198705    0.096198705    0              0.45405126     0.3832088      1.3546985    
     37000   1.0363665      4.2032774      1.4681858      2.7350916      0.10974297     0.10974297     0              0.93147813     0.36032878     1.3335417    
     37100   1.4587723      4.3546753      2.0665941      2.2880812      0.11776533     0.11776533     0              0.47617041     0.3704773      1.3236681    
     37200   0.924171       3.9428227      1.3092422      2.6335805      0.10759431     0.10759431     0              0.73908459     0.55562689     1.2312747    
     37300   1.2387001      4.4331177      1.7548252      2.6782925      0.1065925      0.1065925      0              0.60697787     0.60303447     1.3616877    
     37400   1.1623813      4.2434235      1.6467069      2.5967166      0.12047349     0.12047349     0              0.42384948     0.60318857     1.449205     
     37500   1.154331       4.040666       1.6353023      2.4053637      0.11345725     0.11345725     0              0.39531237     0.54137434     1.3552198    
     37600   0.86102756     4.0813911      1.219789       2.861602       0.11104617     0.11104617     0              0.68702831     0.57189359     1.4916339    
     37700   1.0138105      3.8936292      1.4362315      2.4573977      0.11677209     0.11677209     0              0.56903513     0.44748903     1.3241015    
     37800   1.189869       3.7853745      1.6856477      2.0997268      0.12631046     0.12631046     0              0.18563223     0.39497595     1.3928082    
     37900   0.89950077     3.4252037      1.2742928      2.150911       0.13034385     0.13034385     0              0.2098521      0.35625139     1.4544636    
     38000   1.2738969      4.4708341      1.8046873      2.6661469      0.14674117     0.14674117     0              0.61288991     0.42695581     1.47956      
     38100   1.078203       4.23924        1.5274543      2.7117857      0.12044885     0.12044885     0              0.4973968      0.64167305     1.452267     
     38200   1.3247581      4.1849963      1.8767407      2.3082556      0.11412695     0.11412695     0              0.38954002     0.52523638     1.2793522    
     38300   1.1469818      3.6925341      1.6248909      2.0676433      0.10646457     0.10646457     0              0.44037804     0.26011124     1.2606894    
     38400   0.79690568     3.4635985      1.1289497      2.3346488      0.11212823     0.11212823     0              0.59695999     0.29387971     1.3316809    
     38500   0.75365327     3.53733        1.0676755      2.4696545      0.10298873     0.10298873     0              0.48818303     0.41660438     1.4618784    
     38600   0.84824067     3.2868196      1.2016743      2.0851453      0.1083266      0.1083266      0              0.26911136     0.39416218     1.3135452    
     38700   0.6470013      3.0229159      0.91658518     2.1063308      0.12413044     0.12413044     0              0.27610872     0.31101126     1.3950803    
     38800   0.72613829     2.905137       1.0286959      1.8764411      0.11681102     0.11681102     0              0.31559675     0.1864859      1.2575474    
     38900   0.89884586     3.5047247      1.273365       2.2313597      0.10691879     0.10691879     0              0.37515511     0.4041261      1.3451597    
     39000   0.85274667     3.3436412      1.2080578      2.1355834      0.11829338     0.11829338     0              0.25613188     0.39983075     1.3613274    
     39100   1.1520819      3.9618991      1.632116       2.329783       0.12420041     0.12420041     0              0.35745063     0.54321192     1.3049201    
     39200   1.0890856      3.8554251      1.5428712      2.3125539      0.11806295     0.11806295     0              0.44936164     0.27132779     1.4738015    
     39300   1.3317595      4.0634792      1.8866593      2.1768198      0.1303951      0.1303951      0              0.28718909     0.31804115     1.4411945    
     39400   0.90056315     3.9084302      1.2757978      2.6326324      0.13575061     0.13575061     0              0.67794671     0.30953466     1.5094004    
     39500   0.90597483     3.8017006      1.2834643      2.5182363      0.1261465      0.1261465      0              0.3561053      0.31245178     1.7235327    
     39600   0.99893372     3.5325859      1.4151561      2.1174298      0.11874123     0.11874123     0              0.38255994     0.2525434      1.3635852    
     39700   0.78836959     3.5103381      1.1168569      2.3934812      0.10950222     0.10950222     0              0.53875136     0.37824484     1.3669827    
     39800   0.87426691     3.8747394      1.2385448      2.6361946      0.10538763     0.10538763     0              0.66290491     0.42546349     1.4424386    
     39900   1.1575067      4.1839037      1.6398011      2.5441025      0.10323618     0.10323618     0              0.43518821     0.53099445     1.4746837    
     40000   0.79753161     3.6217652      1.1298364      2.4919288      0.10636931     0.10636931     0              0.46566083     0.58423287     1.3356658    
     40100   1.252974       4.3569846      1.7750465      2.5819382      0.1162604      0.1162604      0              0.44590945     0.43528902     1.5844793    
     40200   1.0328069      4.0441435      1.4631431      2.5810004      0.11416717     0.11416717     0              0.28619312     0.7565459      1.4240942    
     40300   0.96240121     3.6957233      1.3634017      2.3323216      0.11454756     0.11454756     0              0.53470262     0.36341678     1.3196546    
     40400   1.0006431      3.4458684      1.4175778      2.0282907      0.097593807    0.097593807    0              0.45112578     0.23247869     1.2470924    
     40500   0.84060146     4.0200555      1.1908521      2.8292034      0.08542945     0.08542945     0              0.7856666      0.61220263     1.3459047    
     40600   1.2370342      4.3067941      1.7524651      2.554329       0.086968896    0.086968896    0              0.55808087     0.53749526     1.371784     
     40700   0.97798402     3.8749054      1.3854774      2.4894281      0.10147868     0.10147868     0              0.70719366     0.36450399     1.3162517    
     40800   0.94751069     3.9941422      1.3423068      2.6518353      0.11125348     0.11125348     0              0.45416528     0.65329786     1.4331187    
     40900   1.3995249      4.7032503      1.9826602      2.72059        0.10831777     0.10831777     0              0.53869553     0.65636115     1.4172156    
     41000   1.2029931      4.7163286      1.7042403      3.0120884      0.096289797    0.096289797    0              0.82163132     0.61369154     1.4804757    
     41100   1.1864159      4.2851885      1.6807559      2.6044326      0.088455719    0.088455719    0              0.60453448     0.47613969     1.4353027    
     41200   1.0149382      4.195127       1.4378291      2.7572979      0.092087813    0.092087813    0              0.67909051     0.33569754     1.6504221    
     41300   1.0667574      4.0733236      1.5112396      2.562084       0.10052667     0.10052667     0              0.60409831     0.31278929     1.5446697    
     41400   0.86515608     4.1423166      1.2256378      2.9166788      0.1047193      0.1047193      0              0.63901288     0.77882351     1.3941231    
     41500   1.1071693      4.1742299      1.5684899      2.6057401      0.11356707     0.11356707     0              0.62840312     0.31788834     1.5458815    
     41600   0.9323161      3.8590401      1.3207811      2.538259       0.11128254     0.11128254     0              0.463701       0.67068791     1.2925875    
     41700   1.0548995      3.5555166      1.4944409      2.0610757      0.10768403     0.10768403     0              0.2716361      0.31539622     1.3663594    
     41800   0.80084734     3.6364174      1.1345337      2.5018837      0.11965098     0.11965098     0              0.43875133     0.43401318     1.5094682    
     41900   1.0462529      3.8432045      1.4821916      2.3610129      0.11130454     0.11130454     0              0.5836715      0.29395088     1.372086     
     42000   1.0280192      4.0535699      1.4563606      2.5972093      0.11004325     0.11004325     0              0.5586932      0.35970615     1.5687667    
     42100   0.99066006     3.525882       1.4034351      2.1224469      0.12901066     0.12901066     0              0.40926832     0.27840307     1.3057648    
     42200   1.0643657      3.6501499      1.5078514      2.1422985      0.1236152      0.1236152      0              0.22130584     0.34578242     1.4515951    
     42300   0.77382763     3.7527168      1.0962558      2.656461       0.1324046      0.1324046      0              0.528478       0.54124428     1.4543341    
     42400   0.86545272     3.8108382      1.226058       2.5847802      0.12847216     0.12847216     0              0.52260254     0.49158059     1.4421249    
     42500   1.0607484      3.594089       1.5027269      2.0913621      0.10795005     0.10795005     0              0.33889205     0.34567846     1.2988415    
     42600   0.62563341     3.2786883      0.88631399     2.3923743      0.10014667     0.10014667     0              0.49706868     0.34369367     1.4514652    
     42700   0.81192677     3.0838052      1.1502296      1.9335756      0.10900826     0.10900826     0              0.3332369      0.12260157     1.3687288    
     42800   1.1894001      3.9019805      1.6849835      2.216997       0.11704997     0.11704997     0              0.42276863     0.29660982     1.3805686    
     42900   1.1337907      3.9473345      1.6062035      2.341131       0.11816442     0.11816442     0              0.42084142     0.24125856     1.5608666    
     43000   1.3312761      4.5823682      1.8859745      2.6963936      0.13649951     0.13649951     0              0.67350162     0.48729042     1.3991021    
     43100   1.2512294      4.1233259      1.772575       2.3507509      0.13917714     0.13917714     0              0.35032784     0.42362742     1.4376186    
     43200   1.1917495      4.2515194      1.6883118      2.5632076      0.13038009     0.13038009     0              0.53677523     0.50172513     1.3943271    
     43300   1.0911341      4.706806       1.5457733      3.1610326      0.12078703     0.12078703     0              0.74053842     0.83499885     1.4647083    
     43400   1.1942668      4.087261       1.691878       2.395383       0.11718522     0.11718522     0              0.4845177      0.37380458     1.4198755    
     43500   1.6821395      4.957801       2.383031       2.57477        0.13445747     0.13445747     0              0.4003233      0.47830802     1.5616812    
     43600   1.113237       4.2023268      1.5770857      2.6252411      0.13840434     0.13840434     0              0.53494673     0.37704431     1.5748458    
     43700   1.0401706      4.3707617      1.473575       2.8971868      0.15545732     0.15545732     0              0.61012546     0.59967484     1.5319291    
     43800   1.123564       4.1130009      1.5917156      2.5212853      0.17517645     0.17517645     0              0.36480576     0.55447553     1.4268276    
     43900   1.085515       4.7851337      1.537813       3.2473207      0.18120323     0.18120323     0              0.53117527     0.83825017     1.6966921    
     44000   1.1984622      4.4821392      1.6978214      2.7843177      0.14992977     0.14992977     0              0.45023775     0.48989135     1.6942589    
     44100   1.3532562      4.942712       1.9171129      3.0255991      0.12559661     0.12559661     0              0.46103582     1.0562724      1.3826942    
     44200   1.1739944      4.471886       1.6631587      2.8087273      0.11456536     0.11456536     0              0.46522057     0.69644211     1.5324993    
     44300   1.212699       4.9139453      1.7179903      3.195955       0.091914786    0.091914786    0              1.1506024      0.56624212     1.3871958    
     44400   1.0048682      4.7041194      1.4235633      3.2805561      0.086247112    0.086247112    0              1.1510647      0.58144025     1.4618041    
     44500   1.7802425      4.835081       2.5220103      2.3130708      0.098695282    0.098695282    0              0.35221476     0.5121379      1.3500228    
     44600   1.2124819      4.1155013      1.7176827      2.3978186      0.10663376     0.10663376     0              0.34117517     0.48348168     1.466528     
     44700   1.1135956      3.7900725      1.5775938      2.2124787      0.10866562     0.10866562     0              0.49213101     0.20284437     1.4088377    
     44800   0.81619217     3.7490599      1.1562722      2.5927877      0.10986569     0.10986569     0              0.51480837     0.64613321     1.3219804    
     44900   1.2877057      4.1460187      1.8242498      2.3217689      0.10999944     0.10999944     0              0.42149751     0.40221598     1.388056     
     45000   1.1690385      4.0006262      1.6561379      2.3444883      0.11036841     0.11036841     0              0.55338516     0.35101908     1.3297156    
     45100   1.1445073      3.8508926      1.6213854      2.2295072      0.10603599     0.10603599     0              0.46796489     0.24772277     1.4077836    
     45200   1.0562838      3.8183651      1.4964021      2.321963       0.11372266     0.11372266     0              0.40289083     0.38699285     1.4183567    
     45300   1.02535        3.6385678      1.4525792      2.1859886      0.12662639     0.12662639     0              0.30905069     0.36598683     1.3843247    
     45400   0.91613894     3.8909725      1.2978635      2.593109       0.12993094     0.12993094     0              0.42509837     0.64907225     1.3890074    
     45500   1.1179703      4.3055824      1.5837912      2.7217912      0.1171974      0.1171974      0              0.52110709     0.57200959     1.5114771    
     45600   1.1378247      3.9220015      1.6119183      2.3100832      0.095764788    0.095764788    0              0.36520318     0.38456767     1.4645475    
     45700   0.80193163     3.4647235      1.1360698      2.3286537      0.092719079    0.092719079    0              0.46114469     0.37426725     1.4005227    
     45800   0.91233599     3.5750372      1.292476       2.2825613      0.084856659    0.084856659    0              0.38473294     0.50105724     1.3119144    
     45900   0.88001248     3.4677827      1.2466843      2.2210984      0.087899078    0.087899078    0              0.41773719     0.28800942     1.4274527    
     46000   0.78386829     3.5970609      1.1104801      2.4865808      0.09344001     0.09344001     0              0.55380475     0.4515721      1.3877639    
     46100   0.72721563     3.3634175      1.0302221      2.3331953      0.093282365    0.093282365    0              0.46385676     0.39838674     1.3776694    
     46200   0.88570336     3.5939536      1.2547464      2.3392072      0.093704429    0.093704429    0              0.3317048      0.37929098     1.534507     
     46300   1.1081809      3.8633366      1.569923       2.2934136      0.10147252     0.10147252     0              0.37531119     0.48143279     1.3351971    
     46400   0.91388184     3.9630054      1.2946659      2.6683395      0.1155099      0.1155099      0              0.3883077      0.74247098     1.4220509    
     46500   1.2966663      4.3005932      1.8369439      2.4636493      0.11223371     0.11223371     0              0.58277822     0.36316897     1.4054684    
     46600   1.2664127      4.7013994      1.7940846      2.9073147      0.11649783     0.11649783     0              0.80615957     0.62795006     1.3567073    
     46700   1.394311       4.4878208      1.975274       2.5125468      0.11028613     0.11028613     0              0.54698364     0.26218866     1.5930884    
     46800   1.0262024      4.0301248      1.4537867      2.5763381      0.10012185     0.10012185     0              0.70988927     0.29761308     1.4687139    
     46900   1.4842043      4.472693       2.1026228      2.3700703      0.099828384    0.099828384    0              0.61186145     0.36170273     1.2966777    
     47000   1.2695521      4.3578575      1.7985321      2.5593253      0.1001072      0.1001072      0              0.730272       0.35126214     1.377684     
     47100   1.2449197      4.3867538      1.7636363      2.6231175      0.11335238     0.11335238     0              0.4978463      0.46408973     1.5478291    
     47200   1.1737972      4.0058509      1.6628793      2.3429716      0.11808358     0.11808358     0              0.3479373      0.4654842      1.4114665    
     47300   1.1260398      3.8933316      1.5952231      2.2981085      0.111456       0.111456       0              0.29440266     0.42554252     1.4667074    
     47400   1.1726308      4.219641       1.6612269      2.5584141      0.12218255     0.12218255     0              0.51019162     0.53804563     1.3879943    
     47500   1.0597232      3.858391       1.5012745      2.3571165      0.12551031     0.12551031     0              0.29626976     0.42209025     1.5132462    
     47600   1.1679172      4.4470496      1.6545493      2.7925003      0.10800058     0.10800058     0              0.59322878     0.65310066     1.4381702    
     47700   1.7133896      5.063204       2.4273019      2.6359021      0.10550709     0.10550709     0              0.46941121     0.5547267      1.5062571    
     47800   0.9963832      3.8849005      1.4115429      2.4733576      0.12147991     0.12147991     0              0.40646367     0.58785004     1.357564     
     47900   1.0398221      3.6846514      1.4730813      2.2115701      0.11576244     0.11576244     0              0.1681427      0.49056846     1.4370965    
     48000   0.88871053     3.5402695      1.2590066      2.2812629      0.10341691     0.10341691     0              0.33392025     0.57201724     1.2719085    
     48100   0.99261141     3.7793406      1.4061995      2.3731411      0.103819       0.103819       0              0.58783131     0.36672568     1.3147651    
     48200   1.0161495      3.6380248      1.4395452      2.1984797      0.10905225     0.10905225     0              0.21966224     0.41224766     1.4575175    
     48300   0.98117195     3.5933555      1.3899936      2.2033619      0.10902652     0.10902652     0              0.34609241     0.34139449     1.4068485    
     48400   1.2640975      3.9687577      1.7908047      2.1779529      0.10738851     0.10738851     0              0.49690331     0.16004058     1.4136206    
     48500   1.2451389      3.970488       1.7639467      2.2065413      0.10809418     0.10809418     0              0.43869964     0.32787814     1.3318693    
     48600   1.0777233      3.8685377      1.5267746      2.3417631      0.11307452     0.11307452     0              0.70908051     0.29915001     1.220458     
     48700   1.1208139      3.9239503      1.5878197      2.3361306      0.13606744     0.13606744     0              0.58095522     0.33071944     1.2883885    
     48800   0.89341256     3.4121547      1.2656678      2.1464869      0.15146081     0.15146081     0              0.28657035     0.2488474      1.4596083    
     48900   0.86897611     3.4299038      1.2310495      2.1988543      0.15429327     0.15429327     0              0.31444058     0.30876671     1.4213538    
     49000   0.97963835     3.7869115      1.387821       2.3990905      0.1387985      0.1387985      0              0.36783377     0.50401547     1.3884428    
     49100   0.81514406     3.6713443      1.1547874      2.5165569      0.1370145      0.1370145      0              0.49945067     0.43115994     1.4489318    
     49200   0.99678641     3.9807552      1.4121141      2.5686412      0.13561236     0.13561236     0              0.49900385     0.35804041     1.5759845    
     49300   1.2573501      4.4926514      1.7812459      2.7114054      0.12303179     0.12303179     0              0.47277677     0.71905899     1.3965379    
     49400   1.2562816      4.4120431      1.7797322      2.6323109      0.12990552     0.12990552     0              0.29480394     0.62372047     1.5838809    
     49500   1.4530152      4.7771256      2.0584381      2.7186875      0.12854622     0.12854622     0              0.24051125     0.6710862      1.6785438    
     49600   1.2832752      4.4175735      1.8179732      2.5996003      0.12839616     0.12839616     0              0.50359277     0.56592914     1.4016823    
     49700   1.1415657      3.638223       1.617218       2.021005       0.12860357     0.12860357     0              0.12370151     0.50714353     1.2615564    
     49800   1.1239972      3.9370438      1.5923294      2.3447144      0.1276609      0.1276609      0              0.48969385     0.29836249     1.4289972    
     49900   0.66002473     3.2919486      0.93503503     2.3569136      0.12083425     0.12083425     0              0.33004156     0.54986438     1.3561734    
     50000   0.79698927     3.4847837      1.1290681      2.3557155      0.12074088     0.12074088     0              0.5461534      0.35489421     1.333927     
     50100   1.3826984      3.9773024      1.9588227      2.0184797      0.11624141     0.11624141     0              0.22022335     0.34553611     1.3364788    
     50200   0.76511506     3.2057864      1.083913       2.1218734      0.11354714     0.11354714     0              0.22219329     0.49417683     1.2919561    
     50300   1.0735258      3.5973448      1.5208283      2.0765165      0.11718218     0.11718218     0              0.35162293     0.25348823     1.3542232    
     50400   0.83130031     3.2871055      1.1776754      2.1094301      0.10983902     0.10983902     0              0.46763712     0.29059446     1.2413595    
     50500   0.79694571     3.1823307      1.1290064      2.0533243      0.10599859     0.10599859     0              0.20157153     0.31935789     1.4263963    
     50600   0.78857517     3.0529538      1.1171482      1.9358057      0.10309274     0.10309274     0              0.3494844      0.20925324     1.2739753    
     50700   1.0065769      3.4026357      1.425984       1.9766517      0.10739769     0.10739769     0              0.22383009     0.27670416     1.3687198    
     50800   1.1784004      3.9390324      1.6694006      2.2696318      0.11767177     0.11767177     0              0.34672217     0.47117406     1.3340638    
     50900   1.120415       3.9042403      1.5872546      2.3169857      0.12122787     0.12122787     0              0.51933977     0.3679075      1.3085106    
     51000   0.96213959     3.7924389      1.3630311      2.4294078      0.12874948     0.12874948     0              0.3847334      0.54238804     1.3735369    
     51017   0.89862636     3.9689863      1.273054       2.6959323      0.13121996     0.13121996     0              0.60827149     0.55806815     1.3983727    
Loop time of 0.495687 on 8 procs for 50000 steps with 18 atoms

Performance: 43575874.425 tau/day, 100870.080 timesteps/s, 1.816 Matom-step/s
757.4% CPU use with 1 MPI tasks x 8 OpenMP threads

MPI task timing breakdown:
Section |  min time  |  avg time  |  max time  |%varavg| %total
---------------------------------------------------------------
Pair    | 0.07051    | 0.07051    | 0.07051    |   0.0 | 14.22
Bond    | 0.12971    | 0.12971    | 0.12971    |   0.0 | 26.17
Neigh   | 0.057696   | 0.057696   | 0.057696   |   0.0 | 11.64
Comm    | 0.0079646  | 0.0079646  | 0.0079646  |   0.0 |  1.61
Output  | 0.011547   | 0.011547   | 0.011547   |   0.0 |  2.33
Modify  | 0.072051   | 0.072051   | 0.072051   |   0.0 | 14.54
Other   |            | 0.1462     |            |       | 29.50

Nlocal:             18 ave          18 max          18 min
Histogram: 1 0 0 0 0 0 0 0 0 0
Nghost:              4 ave           4 max           4 min
Histogram: 1 0 0 0 0 0 0 0 0 0
Neighs:              0 ave           0 max           0 min
Histogram: 1 0 0 0 0 0 0 0 0 0

Total # of neighbors = 0
Ave neighs/atom = 0
Ave special neighs/atom = 5.3333333
Neighbor list builds = 4600
Dangerous builds = 0
System init for write_restart ...
Generated 0 of 0 mixed pair_coeff terms from geometric mixing rule
System init for write_data ...
Generated 0 of 0 mixed pair_coeff terms from geometric mixing rule
Total wall time: 0:00:00
