LAMMPS data file via write_data, version 29 Aug 2024, timestep = 5000000, units = lj

24 atoms
1 atom types
23 bonds
1 bond types
22 angles
1 angle types
21 dihedrals
1 dihedral types

-13.5 36.5 xlo xhi
-25 25 ylo yhi
-25 25 zlo zhi

Masses

1 1

Bond Coeffs # harmonic

1 30 1.4

Angle Coeffs # harmonic

1 10 140

Dihedral Coeffs # multi/harmonic

1 1 1 1 1 1

Atoms # full

11 1 1 -2 -0.19523516914487926 -3.187284418685554 -7.093918682168482 1 0 1
18 1 1 -2 4.277288698264682 -10.645553256218994 -5.862099800910421 1 0 1
17 1 1 -2 4.606144322157555 -9.383552256757973 -6.495430549375542 1 0 1
16 1 1 -2 4.388333298269266 -8.297329346432617 -6.126984157244869 1 0 1
14 1 1 -2 2.6684043069294385 -6.199508117626344 -5.453351811785798 1 0 1
15 1 1 -2 3.6879717616800884 -6.751725297544735 -6.17088606299642 1 0 1
12 1 1 -2 0.8264135981717894 -4.08357908421885 -6.501819567243065 1 0 1
13 1 1 -2 1.1704669900709999 -5.5515653795133275 -5.855639098321821 1 0 1
10 1 1 -2 -1.1734187918274386 -2.14856472548005 -6.620023402060492 1 0 1
9 1 1 -2 -1.2837013669280237 -0.6566773787921881 -6.865021599615892 1 0 1
21 1 1 -2 3.227010786942489 -13.096122659583825 -3.63923467046536 1 0 1
20 1 1 -2 4.286939893956684 -12.575448066732184 -4.129166949822396 1 0 1
19 1 1 -2 4.68311341067649 -11.272974134752193 -4.807006132324195 1 0 1
23 1 1 -2 1.9258932782886076 -14.20393471043413 -2.1971777718868695 1 0 1
22 1 1 -2 2.9144532145232063 -14.22452881377509 -2.911125882906664 1 0 1
24 1 1 -2 1.7988482968803199 -13.683416721142336 -0.7785163752886651 1 0 1
8 1 1 -2 -0.844099964705024 0.6101051130804163 -6.347702914851847 1 0 1
7 1 1 -2 -1.342237954564197 1.996868104659495 -6.522001935395256 1 0 1
6 1 1 -2 -0.6272008164854085 3.324296713716388 -6.734487784882216 1 0 1
5 1 1 -2 -0.3199581575147544 4.781380557124015 -6.516804040868556 1 0 1
4 1 1 -2 -0.4793485955537301 6.245860464773986 -6.4989532344521015 1 0 1
3 1 1 -2 0.23996949250355923 6.835803556139738 -5.716161631485954 1 0 1
2 1 1 -2 0.8194303801117665 7.861595742844769 -5.833587255611514 1 0 1
1 1 1 -2 0.9185539367741452 9.018238106784308 -4.690927701122837 1 0 1

Velocities

11 -0.16469942194162457 -0.8823544067326626 0.02376096105874543
18 -1.4833294244400834 0.5480556199673626 1.050975695167338
17 -2.4610951787178483 2.4053912109844475 -1.0425144763086167
16 2.2691164685994827 -0.37865891722568845 2.7568126314286503
14 -0.7081796849854921 0.1357128400315679 0.7241158324247671
15 0.2553659227267078 0.10262947775720876 0.4708409969494684
12 -0.7431471122191505 2.3323198735922372 -1.668850588880233
13 -1.207777014252913 -0.9493507041274335 -0.004121850446848476
10 0.37738874782541637 -0.2704923830328583 -0.1643473073005074
9 0.3609092491860845 0.3975825454145957 -0.13236039751668796
21 -0.5996502796585118 0.734892131396781 0.5997617197489838
20 0.9809197819811578 2.422698333821909 -0.476519389456732
19 3.306095508274823 1.028418450721079 -0.20495905583829188
23 -2.3984021820092383 -0.8266443251397989 0.02240126678170413
22 0.5026556218295963 0.8457044361246177 0.627239410365678
24 0.30893659926262523 -1.1999790323779622 1.160385990506538
8 -0.10765044204021638 0.4136598691368029 0.5156861508884335
7 -1.8803974852832024 0.710226496870243 0.5954490835845079
6 -0.8937691014346194 -0.1657565171468265 0.26646178991186775
5 -0.46295421075203824 -0.29152733060428976 1.2477774024283308
4 0.6038790735842913 -1.1997757761506276 -1.9842694418305529
3 -1.4075954084056042 -2.3752717778078183 1.203601668218369
2 0.21291087775850298 -0.07203717976836045 -0.4380468488232366
1 -0.13737108653649954 0.523297408525963 0.14896396778448326

Bonds

1 1 11 12
2 1 18 19
3 1 17 18
4 1 16 17
5 1 14 15
6 1 15 16
7 1 12 13
8 1 13 14
9 1 10 11
10 1 9 10
11 1 21 22
12 1 20 21
13 1 19 20
14 1 23 24
15 1 22 23
16 1 8 9
17 1 7 8
18 1 6 7
19 1 5 6
20 1 4 5
21 1 3 4
22 1 2 3
23 1 1 2

Angles

1 1 10 11 12
2 1 17 18 19
3 1 16 17 18
4 1 15 16 17
5 1 13 14 15
6 1 14 15 16
7 1 11 12 13
8 1 12 13 14
9 1 9 10 11
10 1 8 9 10
11 1 20 21 22
12 1 19 20 21
13 1 18 19 20
14 1 22 23 24
15 1 21 22 23
16 1 7 8 9
17 1 6 7 8
18 1 5 6 7
19 1 4 5 6
20 1 3 4 5
21 1 2 3 4
22 1 1 2 3

Dihedrals

1 1 10 11 12 13
2 1 17 18 19 20
3 1 16 17 18 19
4 1 15 16 17 18
5 1 13 14 15 16
6 1 14 15 16 17
7 1 11 12 13 14
8 1 12 13 14 15
9 1 9 10 11 12
10 1 8 9 10 11
11 1 20 21 22 23
12 1 19 20 21 22
13 1 18 19 20 21
14 1 21 22 23 24
15 1 7 8 9 10
16 1 6 7 8 9
17 1 5 6 7 8
18 1 4 5 6 7
19 1 3 4 5 6
20 1 2 3 4 5
21 1 1 2 3 4
