LAMMPS data file via write_data, version 29 Aug 2024, timestep = 50004, units = lj

12 atoms
1 atom types
11 bonds
1 bond types
10 angles
1 angle types
9 dihedrals
1 dihedral types

-13.5 36.5 xlo xhi
-25 25 ylo yhi
-25 25 zlo zhi

Masses

1 1

Bond Coeffs # harmonic

1 30 1.4

Angle Coeffs # harmonic

1 18 140

Dihedral Coeffs # multi/harmonic

1 2 2 2 2 2

Atoms # full

10 1 1 -2 -4.0463403945856955 -4.644585627457438 -3.8899746179738095 0 0 0
12 1 1 -2 -3.509152262004924 -6.9144184497898955 -5.184305387493849 0 0 0
11 1 1 -2 -3.862277156473925 -5.906449691370461 -3.9806628739276273 0 0 0
9 1 1 -2 -4.502226704710371 -3.63235885677331 -3.432315003802615 0 0 0
7 1 1 -2 -5.851731588991135 -1.1233349342714678 -2.879771125482476 0 0 0
8 1 1 -2 -5.62137288724222 -2.721307356267458 -3.469878175658398 0 0 0
6 1 1 -2 -6.761222434913282 -0.11084423770503603 -2.893038876143889 0 0 0
5 1 1 -2 -7.209581283136087 1.108553912942148 -3.082505485799807 0 0 0
3 1 1 -2 -7.970401296225048 3.1868489011256758 -2.5991379821093306 0 0 0
4 1 1 -2 -8.27121326413937 2.1691002282277836 -2.8464114405725898 0 0 0
2 1 1 -2 -7.563539755194517 4.0439388567710575 -1.6051305682292112 0 0 0
1 1 1 -2 -6.502764994451225 4.50573236434189 -0.9069545524228196 0 0 0

Velocities

10 1.0506534389400788 -0.015444470949542956 1.200713629490722
12 -0.642156710298691 1.0026165525743442 -0.48768722821871513
11 -1.8931513667101199 0.7405622456853599 -0.5102464904161841
9 -0.933964062386368 1.8919407555025696 0.6886146325633973
7 1.0662425456578442 0.4216970272072909 1.239123928449491
8 0.5695977219525282 0.44964770933569076 -0.13342759565102286
6 -0.34343193362091784 0.23341332790802516 0.032673399335024535
5 0.6935763022811149 1.2261503894276717 -1.9611204187579379
3 -0.035630747098367006 -0.8553674167123868 2.746363233168648
4 1.2999041486181886 0.6597059821524556 1.840205830063028
2 -0.29075359052310223 -0.8239383033703873 -1.0840802667822966
1 -0.6448044201801392 0.47003745321025014 0.028621826743620418

Bonds

1 1 10 11
2 1 11 12
3 1 9 10
4 1 7 8
5 1 8 9
6 1 6 7
7 1 5 6
8 1 3 4
9 1 4 5
10 1 2 3
11 1 1 2

Angles

1 1 9 10 11
2 1 10 11 12
3 1 8 9 10
4 1 6 7 8
5 1 7 8 9
6 1 5 6 7
7 1 4 5 6
8 1 2 3 4
9 1 3 4 5
10 1 1 2 3

Dihedrals

1 1 9 10 11 12
2 1 8 9 10 11
3 1 6 7 8 9
4 1 7 8 9 10
5 1 5 6 7 8
6 1 4 5 6 7
7 1 2 3 4 5
8 1 3 4 5 6
9 1 1 2 3 4
