LAMMPS data file via write_data, version 29 Aug 2024, units = lj

12 atoms
1 atom types
11 bonds
1 bond types
10 angles
1 angle types
9 dihedrals
1 dihedral types

-13.5 36.5 xlo xhi
-25 25 ylo yhi
-25 25 zlo zhi

Masses

1 1

Atoms # full

1 1 1 -2 10.336910735005356 -2.158891419118023 -15.515506869234022 0 0 0
3 1 1 -2 9.429520587524724 -1.160165579836923 -13.255901277416855 0 0 0
2 1 1 -2 10.028668788546542 -1.2225103248025195 -14.52205737424922 0 0 0
4 1 1 -2 9.684952507074035 -0.6767281014386871 -11.9620704089427 0 0 0
6 1 1 -2 10.541018082614912 -1.1123961479786617 -9.496156377094945 0 0 0
7 1 1 -2 10.476200548452944 -0.8052481679763585 -8.123791386669916 0 0 0
8 1 1 -2 10.833327989817965 -1.3370461508360025 -6.868709182684343 0 0 0
9 1 1 -2 10.271632996992167 -1.6404326336676276 -5.608771304358455 0 0 0
5 1 1 -2 9.709778906922844 -1.1309365139512424 -10.63197614352249 0 0 0
12 1 1 -2 9.303268853892867 -4.814819448668592 -3.5153576505534962 0 0 0
11 1 1 -2 9.480613101542154 -3.456677846057255 -3.8154935150697145 0 0 0
10 1 1 -2 10.30838021773663 -2.6528336902765313 -4.627330130270868 0 0 0

Bonds

1 1 1 2
2 1 3 4
3 1 2 3
4 1 4 5
5 1 6 7
6 1 7 8
7 1 8 9
8 1 9 10
9 1 5 6
10 1 11 12
11 1 10 11

Angles

1 1 2 3 4
2 1 1 2 3
3 1 3 4 5
4 1 5 6 7
5 1 6 7 8
6 1 7 8 9
7 1 8 9 10
8 1 4 5 6
9 1 9 10 11
10 1 10 11 12

Dihedrals

1 1 2 3 4 5
2 1 1 2 3 4
3 1 3 4 5 6
4 1 5 6 7 8
5 1 6 7 8 9
6 1 7 8 9 10
7 1 8 9 10 11
8 1 4 5 6 7
9 1 9 10 11 12
