ITEM: TIMESTEP
0
ITEM: NUMBER OF ATOMS
12
ITEM: BOX BOUNDS pp pp pp
-1.3500000000000000e+01 3.6500000000000000e+01
-2.5000000000000000e+01 2.5000000000000000e+01
-2.5000000000000000e+01 2.5000000000000000e+01
ITEM: ATOMS id type xs ys zs
1 1 0.476738 0.456822 0.18969
2 1 0.470573 0.47555 0.209559
3 1 0.45859 0.476797 0.234882
4 1 0.463699 0.486465 0.260759
5 1 0.464196 0.477381 0.28736
6 1 0.48082 0.477752 0.310077
7 1 0.479524 0.483895 0.337524
8 1 0.486667 0.473259 0.362626
12 1 0.456065 0.403704 0.429693
11 1 0.459612 0.430866 0.42369
10 1 0.476168 0.446943 0.407453
9 1 0.475433 0.467191 0.387825
ITEM: TIMESTEP
4
ITEM: NUMBER OF ATOMS
12
ITEM: BOX BOUNDS pp pp pp
-1.3500000000000000e+01 3.6500000000000000e+01
-2.5000000000000000e+01 2.5000000000000000e+01
-2.5000000000000000e+01 2.5000000000000000e+01
ITEM: ATOMS id type xs ys zs
1 1 0.476799 0.456864 0.189662
2 1 0.470551 0.475561 0.209544
3 1 0.458597 0.476762 0.234908
4 1 0.46369 0.48637 0.260814
5 1 0.464168 0.477258 0.287393
6 1 0.480703 0.47773 0.31015
7 1 0.479292 0.483875 0.337598
8 1 0.486651 0.473433 0.362765
12 1 0.455857 0.403844 0.429815
11 1 0.459462 0.430759 0.422944
10 1 0.476585 0.447033 0.407574
9 1 0.475731 0.467138 0.387971
ITEM: TIMESTEP
1000
ITEM: NUMBER OF ATOMS
12
ITEM: BOX BOUNDS pp pp pp
-1.3500000000000000e+01 3.6500000000000000e+01
-2.5000000000000000e+01 2.5000000000000000e+01
-2.5000000000000000e+01 2.5000000000000000e+01
ITEM: ATOMS id type xs ys zs
1 1 0.427788 0.516871 0.210612
2 1 0.442696 0.501044 0.226061
3 1 0.45584 0.507754 0.246732
4 1 0.454115 0.504331 0.273536
5 1 0.466839 0.513849 0.301844
6 1 0.468413 0.502925 0.325423
7 1 0.488372 0.495146 0.349401
8 1 0.49829 0.502162 0.372646
12 1 0.514338 0.455874 0.464521
11 1 0.502759 0.471449 0.448332
10 1 0.507873 0.487395 0.42705
9 1 0.492184 0.491814 0.402807
ITEM: TIMESTEP
2000
ITEM: NUMBER OF ATOMS
12
ITEM: BOX BOUNDS pp pp pp
-1.3500000000000000e+01 3.6500000000000000e+01
-2.5000000000000000e+01 2.5000000000000000e+01
-2.5000000000000000e+01 2.5000000000000000e+01
ITEM: ATOMS id type xs ys zs
1 1 0.415246 0.523535 0.225811
2 1 0.434748 0.505377 0.238852
3 1 0.45487 0.504312 0.25522
4 1 0.457517 0.496461 0.283348
5 1 0.477506 0.491848 0.308399
6 1 0.47858 0.495428 0.33542
7 1 0.499162 0.489987 0.352133
8 1 0.511365 0.50143 0.378434
11 1 0.530266 0.52629 0.445869
10 1 0.535755 0.522506 0.420438
9 1 0.52905 0.502179 0.398796
12 1 0.517359 0.535727 0.467471
ITEM: TIMESTEP
3000
ITEM: NUMBER OF ATOMS
12
ITEM: BOX BOUNDS pp pp pp
-1.3500000000000000e+01 3.6500000000000000e+01
-2.5000000000000000e+01 2.5000000000000000e+01
-2.5000000000000000e+01 2.5000000000000000e+01
ITEM: ATOMS id type xs ys zs
1 1 0.473616 0.525324 0.227442
2 1 0.483327 0.514946 0.251139
3 1 0.501823 0.522473 0.270217
4 1 0.514605 0.51115 0.287966
5 1 0.520142 0.518368 0.317754
6 1 0.536698 0.511797 0.340499
7 1 0.535813 0.514263 0.363352
8 1 0.533117 0.507411 0.395803
11 1 0.5567 0.529326 0.467907
10 1 0.55604 0.512365 0.443165
9 1 0.548948 0.516493 0.415839
12 1 0.551427 0.521667 0.492065
ITEM: TIMESTEP
4000
ITEM: NUMBER OF ATOMS
12
ITEM: BOX BOUNDS pp pp pp
-1.3500000000000000e+01 3.6500000000000000e+01
-2.5000000000000000e+01 2.5000000000000000e+01
-2.5000000000000000e+01 2.5000000000000000e+01
ITEM: ATOMS id type xs ys zs
1 1 0.477515 0.500487 0.253552
2 1 0.496557 0.483223 0.25631
3 1 0.522993 0.487488 0.264907
4 1 0.527628 0.475805 0.292327
5 1 0.534938 0.483755 0.318443
6 1 0.554607 0.481436 0.34159
7 1 0.56641 0.505758 0.357761
8 1 0.567328 0.510641 0.382664
10 1 0.555189 0.516603 0.427726
9 1 0.553715 0.514189 0.402787
11 1 0.547438 0.540799 0.449528
12 1 0.536388 0.541695 0.475711
ITEM: TIMESTEP
5000
ITEM: NUMBER OF ATOMS
12
ITEM: BOX BOUNDS pp pp pp
-1.3500000000000000e+01 3.6500000000000000e+01
-2.5000000000000000e+01 2.5000000000000000e+01
-2.5000000000000000e+01 2.5000000000000000e+01
ITEM: ATOMS id type xs ys zs
1 1 0.504938 0.495422 0.217677
2 1 0.512289 0.491265 0.242228
3 1 0.508381 0.506567 0.268232
4 1 0.516149 0.523861 0.292629
5 1 0.508535 0.524724 0.319756
6 1 0.528882 0.515647 0.337579
7 1 0.541982 0.516921 0.362722
8 1 0.550192 0.499608 0.383619
10 1 0.544821 0.500827 0.432311
9 1 0.55623 0.504477 0.407967
11 1 0.528229 0.517037 0.450358
12 1 0.501727 0.511061 0.463871
ITEM: TIMESTEP
6000
ITEM: NUMBER OF ATOMS
12
ITEM: BOX BOUNDS pp pp pp
-1.3500000000000000e+01 3.6500000000000000e+01
-2.5000000000000000e+01 2.5000000000000000e+01
-2.5000000000000000e+01 2.5000000000000000e+01
ITEM: ATOMS id type xs ys zs
1 1 0.496417 0.430258 0.24966
2 1 0.511673 0.440435 0.271262
3 1 0.523296 0.473145 0.278003
4 1 0.508323 0.493965 0.297838
5 1 0.50839 0.498141 0.324054
6 1 0.499736 0.514891 0.349387
7 1 0.492745 0.511336 0.377656
8 1 0.511058 0.510831 0.406326
11 1 0.529087 0.493052 0.474827
10 1 0.52605 0.483089 0.450946
9 1 0.508485 0.490184 0.433445
12 1 0.548616 0.501409 0.492669
ITEM: TIMESTEP
7000
ITEM: NUMBER OF ATOMS
12
ITEM: BOX BOUNDS pp pp pp
-1.3500000000000000e+01 3.6500000000000000e+01
-2.5000000000000000e+01 2.5000000000000000e+01
-2.5000000000000000e+01 2.5000000000000000e+01
ITEM: ATOMS id type xs ys zs
1 1 0.488431 0.478279 0.259798
2 1 0.488699 0.483606 0.283983
3 1 0.481992 0.473411 0.308297
4 1 0.473406 0.483528 0.334706
5 1 0.482043 0.497032 0.360678
6 1 0.484927 0.498339 0.392138
7 1 0.505417 0.496426 0.416455
8 1 0.505338 0.506043 0.437887
10 1 0.491151 0.499538 0.494551
9 1 0.511109 0.502032 0.469109
11 1 0.486094 0.480537 0.514165
12 1 0.489511 0.47735 0.53956
ITEM: TIMESTEP
8000
ITEM: NUMBER OF ATOMS
12
ITEM: BOX BOUNDS pp pp pp
-1.3500000000000000e+01 3.6500000000000000e+01
-2.5000000000000000e+01 2.5000000000000000e+01
-2.5000000000000000e+01 2.5000000000000000e+01
ITEM: ATOMS id type xs ys zs
1 1 0.476341 0.508485 0.250933
2 1 0.488026 0.519161 0.278665
3 1 0.508213 0.517345 0.303163
4 1 0.503016 0.522403 0.331499
5 1 0.509834 0.52028 0.361081
6 1 0.500945 0.51312 0.388274
7 1 0.50346 0.498557 0.414803
8 1 0.505337 0.50086 0.441576
10 1 0.522495 0.472991 0.477615
9 1 0.521854 0.494836 0.459428
11 1 0.521527 0.466995 0.507373
12 1 0.511323 0.441877 0.518813
ITEM: TIMESTEP
9000
ITEM: NUMBER OF ATOMS
12
ITEM: BOX BOUNDS pp pp pp
-1.3500000000000000e+01 3.6500000000000000e+01
-2.5000000000000000e+01 2.5000000000000000e+01
-2.5000000000000000e+01 2.5000000000000000e+01
ITEM: ATOMS id type xs ys zs
1 1 0.507396 0.55833 0.244819
2 1 0.505637 0.555259 0.275696
3 1 0.491177 0.549039 0.297573
4 1 0.495071 0.536022 0.321291
5 1 0.483175 0.526316 0.350468
6 1 0.485714 0.524027 0.377702
7 1 0.475437 0.508477 0.395053
8 1 0.472836 0.502074 0.422724
9 1 0.473281 0.482989 0.439549
12 1 0.505155 0.425107 0.478302
10 1 0.496872 0.469695 0.460323
11 1 0.508805 0.449387 0.463656
ITEM: TIMESTEP
10000
ITEM: NUMBER OF ATOMS
12
ITEM: BOX BOUNDS pp pp pp
-1.3500000000000000e+01 3.6500000000000000e+01
-2.5000000000000000e+01 2.5000000000000000e+01
-2.5000000000000000e+01 2.5000000000000000e+01
ITEM: ATOMS id type xs ys zs
1 1 0.469435 0.614291 0.300253
2 1 0.479993 0.615133 0.32884
3 1 0.483167 0.597248 0.350388
4 1 0.500707 0.580327 0.366942
5 1 0.494913 0.556294 0.381791
6 1 0.507593 0.533619 0.389893
7 1 0.508859 0.506042 0.383861
8 1 0.506652 0.477334 0.39807
9 1 0.492812 0.459974 0.386578
10 1 0.497201 0.435187 0.379522
12 1 0.474563 0.388714 0.374828
11 1 0.478002 0.414657 0.371106
ITEM: TIMESTEP
11000
ITEM: NUMBER OF ATOMS
12
ITEM: BOX BOUNDS pp pp pp
-1.3500000000000000e+01 3.6500000000000000e+01
-2.5000000000000000e+01 2.5000000000000000e+01
-2.5000000000000000e+01 2.5000000000000000e+01
ITEM: ATOMS id type xs ys zs
1 1 0.425559 0.60457 0.363465
10 1 0.525756 0.400792 0.352897
12 1 0.542157 0.351662 0.342966
11 1 0.527088 0.373512 0.344523
7 1 0.487696 0.456722 0.376971
2 1 0.430216 0.576086 0.356795
3 1 0.444825 0.555234 0.363984
4 1 0.440816 0.523748 0.364943
5 1 0.460437 0.497945 0.361545
9 1 0.509287 0.421411 0.352147
6 1 0.464798 0.471748 0.37276
8 1 0.495484 0.433359 0.371924
ITEM: TIMESTEP
12000
ITEM: NUMBER OF ATOMS
12
ITEM: BOX BOUNDS pp pp pp
-1.3500000000000000e+01 3.6500000000000000e+01
-2.5000000000000000e+01 2.5000000000000000e+01
-2.5000000000000000e+01 2.5000000000000000e+01
ITEM: ATOMS id type xs ys zs
11 1 0.515626 0.373129 0.353148
12 1 0.5329 0.348158 0.343279
7 1 0.44347 0.447803 0.357663
10 1 0.507099 0.397324 0.344781
9 1 0.487727 0.416823 0.352476
8 1 0.466419 0.435858 0.345986
5 1 0.412313 0.494164 0.371618
6 1 0.431224 0.479049 0.356734
4 1 0.417315 0.518641 0.387563
1 1 0.410174 0.598767 0.409525
2 1 0.411621 0.568878 0.406791
3 1 0.407487 0.54323 0.393068
ITEM: TIMESTEP
13000
ITEM: NUMBER OF ATOMS
12
ITEM: BOX BOUNDS pp pp pp
-1.3500000000000000e+01 3.6500000000000000e+01
-2.5000000000000000e+01 2.5000000000000000e+01
-2.5000000000000000e+01 2.5000000000000000e+01
ITEM: ATOMS id type xs ys zs
12 1 0.510656 0.367003 0.286903
9 1 0.447393 0.412452 0.305335
11 1 0.494864 0.390182 0.297921
10 1 0.470947 0.404875 0.293337
7 1 0.421437 0.445178 0.337806
8 1 0.437896 0.43511 0.317151
6 1 0.418018 0.453962 0.364976
5 1 0.40541 0.476149 0.371595
4 1 0.383465 0.488319 0.387002
2 1 0.349807 0.531856 0.398641
3 1 0.359363 0.509516 0.385303
1 1 0.355703 0.560366 0.397524
ITEM: TIMESTEP
14000
ITEM: NUMBER OF ATOMS
12
ITEM: BOX BOUNDS pp pp pp
-1.3500000000000000e+01 3.6500000000000000e+01
-2.5000000000000000e+01 2.5000000000000000e+01
-2.5000000000000000e+01 2.5000000000000000e+01
ITEM: ATOMS id type xs ys zs
12 1 0.497592 0.452376 0.286384
9 1 0.438227 0.441274 0.335964
11 1 0.4821 0.434766 0.307233
10 1 0.464124 0.44142 0.32958
7 1 0.404102 0.474218 0.352479
8 1 0.419615 0.460341 0.332521
6 1 0.379166 0.478058 0.365614
5 1 0.351906 0.488501 0.365376
4 1 0.334655 0.506332 0.384135
2 1 0.28082 0.526097 0.401645
3 1 0.305298 0.508266 0.392861
1 1 0.259111 0.522529 0.416244
ITEM: TIMESTEP
15000
ITEM: NUMBER OF ATOMS
12
ITEM: BOX BOUNDS pp pp pp
-1.3500000000000000e+01 3.6500000000000000e+01
-2.5000000000000000e+01 2.5000000000000000e+01
-2.5000000000000000e+01 2.5000000000000000e+01
ITEM: ATOMS id type xs ys zs
12 1 0.504587 0.449474 0.309771
11 1 0.476396 0.444939 0.307912
9 1 0.42843 0.449136 0.324317
8 1 0.402419 0.462763 0.327013
10 1 0.455828 0.450314 0.322994
6 1 0.360008 0.466886 0.363996
5 1 0.340129 0.478285 0.372624
4 1 0.32386 0.493711 0.38825
7 1 0.389602 0.473251 0.346537
2 1 0.295566 0.533231 0.395881
3 1 0.307302 0.513448 0.382399
1 1 0.288047 0.554296 0.385014
ITEM: TIMESTEP
16000
ITEM: NUMBER OF ATOMS
12
ITEM: BOX BOUNDS pp pp pp
-1.3500000000000000e+01 3.6500000000000000e+01
-2.5000000000000000e+01 2.5000000000000000e+01
-2.5000000000000000e+01 2.5000000000000000e+01
ITEM: ATOMS id type xs ys zs
11 1 0.498219 0.463781 0.323927
9 1 0.460734 0.430926 0.338789
10 1 0.470977 0.452878 0.330754
12 1 0.523482 0.477521 0.329929
3 1 0.345409 0.494489 0.367115
6 1 0.380779 0.4263 0.341783
5 1 0.362466 0.446314 0.353065
8 1 0.431534 0.420457 0.333569
7 1 0.402768 0.424991 0.346491
2 1 0.326888 0.514079 0.369111
4 1 0.357155 0.47724 0.351385
1 1 0.308794 0.521483 0.389173
ITEM: TIMESTEP
17000
ITEM: NUMBER OF ATOMS
12
ITEM: BOX BOUNDS pp pp pp
-1.3500000000000000e+01 3.6500000000000000e+01
-2.5000000000000000e+01 2.5000000000000000e+01
-2.5000000000000000e+01 2.5000000000000000e+01
ITEM: ATOMS id type xs ys zs
6 1 0.383295 0.438356 0.349487
5 1 0.359782 0.443902 0.365418
9 1 0.458269 0.445813 0.342351
8 1 0.433464 0.430277 0.35413
7 1 0.409282 0.442354 0.351527
10 1 0.483109 0.45615 0.353073
3 1 0.31402 0.475287 0.382982
2 1 0.320706 0.505417 0.386964
4 1 0.328797 0.453821 0.367297
11 1 0.497893 0.481741 0.34729
12 1 0.522704 0.487714 0.340301
1 1 0.31384 0.526724 0.406028
ITEM: TIMESTEP
18000
ITEM: NUMBER OF ATOMS
12
ITEM: BOX BOUNDS pp pp pp
-1.3500000000000000e+01 3.6500000000000000e+01
-2.5000000000000000e+01 2.5000000000000000e+01
-2.5000000000000000e+01 2.5000000000000000e+01
ITEM: ATOMS id type xs ys zs
6 1 0.404195 0.443025 0.306019
5 1 0.395623 0.449401 0.33388
4 1 0.377301 0.462358 0.343561
9 1 0.47702 0.430807 0.286867
8 1 0.452498 0.426285 0.286535
7 1 0.427954 0.443134 0.288671
10 1 0.495608 0.435711 0.307737
3 1 0.352926 0.467854 0.359936
11 1 0.512675 0.457667 0.30885
12 1 0.513358 0.483567 0.316258
2 1 0.335115 0.447925 0.368913
1 1 0.308496 0.453098 0.372433
ITEM: TIMESTEP
19000
ITEM: NUMBER OF ATOMS
12
ITEM: BOX BOUNDS pp pp pp
-1.3500000000000000e+01 3.6500000000000000e+01
-2.5000000000000000e+01 2.5000000000000000e+01
-2.5000000000000000e+01 2.5000000000000000e+01
ITEM: ATOMS id type xs ys zs
6 1 0.396716 0.41544 0.283206
8 1 0.444629 0.440557 0.274285
7 1 0.414712 0.436458 0.28422
9 1 0.46932 0.451682 0.283179
10 1 0.483328 0.475457 0.285625
2 1 0.324327 0.441674 0.323544
1 1 0.312363 0.447739 0.344728
5 1 0.3733 0.407647 0.280197
11 1 0.499218 0.49023 0.30024
4 1 0.355027 0.405082 0.296062
3 1 0.330521 0.414517 0.305889
12 1 0.495576 0.517434 0.308917
ITEM: TIMESTEP
20000
ITEM: NUMBER OF ATOMS
12
ITEM: BOX BOUNDS pp pp pp
-1.3500000000000000e+01 3.6500000000000000e+01
-2.5000000000000000e+01 2.5000000000000000e+01
-2.5000000000000000e+01 2.5000000000000000e+01
ITEM: ATOMS id type xs ys zs
5 1 0.350905 0.448614 0.240664
4 1 0.334753 0.428892 0.248612
3 1 0.321679 0.421225 0.274175
6 1 0.377103 0.450659 0.241592
8 1 0.417935 0.48767 0.261135
7 1 0.4022 0.462611 0.252664
9 1 0.440779 0.490999 0.273575
10 1 0.450946 0.508904 0.287553
11 1 0.461761 0.516454 0.313652
2 1 0.31672 0.403399 0.290666
1 1 0.321553 0.389934 0.318468
12 1 0.487493 0.522802 0.32416
ITEM: TIMESTEP
21000
ITEM: NUMBER OF ATOMS
12
ITEM: BOX BOUNDS pp pp pp
-1.3500000000000000e+01 3.6500000000000000e+01
-2.5000000000000000e+01 2.5000000000000000e+01
-2.5000000000000000e+01 2.5000000000000000e+01
ITEM: ATOMS id type xs ys zs
5 1 0.352245 0.471768 0.256786
4 1 0.330615 0.454432 0.25117
3 1 0.300926 0.452776 0.254267
6 1 0.380543 0.477928 0.267661
2 1 0.277773 0.436585 0.264831
8 1 0.414486 0.524109 0.267603
7 1 0.390482 0.505528 0.272115
9 1 0.445796 0.532215 0.276344
10 1 0.465091 0.541823 0.291209
1 1 0.255932 0.426601 0.256409
11 1 0.489286 0.560788 0.290189
12 1 0.518358 0.556207 0.287381
ITEM: TIMESTEP
22000
ITEM: NUMBER OF ATOMS
12
ITEM: BOX BOUNDS pp pp pp
-1.3500000000000000e+01 3.6500000000000000e+01
-2.5000000000000000e+01 2.5000000000000000e+01
-2.5000000000000000e+01 2.5000000000000000e+01
ITEM: ATOMS id type xs ys zs
3 1 0.262355 0.435557 0.27046
2 1 0.248826 0.409662 0.277766
1 1 0.230972 0.402815 0.294728
4 1 0.280584 0.448697 0.285104
5 1 0.29549 0.471714 0.274792
6 1 0.324126 0.475085 0.264645
8 1 0.37117 0.496183 0.268339
7 1 0.348255 0.484721 0.274235
9 1 0.399269 0.484568 0.265795
10 1 0.42861 0.49065 0.275558
11 1 0.459857 0.483271 0.270233
12 1 0.479781 0.488967 0.28322
ITEM: TIMESTEP
23000
ITEM: NUMBER OF ATOMS
12
ITEM: BOX BOUNDS pp pp pp
-1.3500000000000000e+01 3.6500000000000000e+01
-2.5000000000000000e+01 2.5000000000000000e+01
-2.5000000000000000e+01 2.5000000000000000e+01
ITEM: ATOMS id type xs ys zs
1 1 0.194896 0.421495 0.279436
2 1 0.217296 0.411613 0.29077
3 1 0.241924 0.408823 0.284517
4 1 0.264021 0.426571 0.288122
5 1 0.284102 0.439427 0.272669
6 1 0.308443 0.45923 0.271534
7 1 0.33207 0.461027 0.278993
8 1 0.355079 0.472762 0.274242
9 1 0.385404 0.473347 0.274646
10 1 0.407805 0.491763 0.276322
11 1 0.434608 0.491729 0.276181
12 1 0.457542 0.509005 0.266922
ITEM: TIMESTEP
24000
ITEM: NUMBER OF ATOMS
12
ITEM: BOX BOUNDS pp pp pp
-1.3500000000000000e+01 3.6500000000000000e+01
-2.5000000000000000e+01 2.5000000000000000e+01
-2.5000000000000000e+01 2.5000000000000000e+01
ITEM: ATOMS id type xs ys zs
1 1 0.166248 0.428306 0.262629
2 1 0.187743 0.447733 0.263092
3 1 0.204845 0.462014 0.247649
4 1 0.233577 0.467432 0.242992
5 1 0.25141 0.485066 0.252377
6 1 0.271654 0.482055 0.262806
7 1 0.297616 0.491561 0.257439
8 1 0.314602 0.502755 0.269158
9 1 0.343621 0.508248 0.264529
10 1 0.368915 0.510023 0.274663
11 1 0.389014 0.527422 0.280721
12 1 0.40747 0.536501 0.299848
ITEM: TIMESTEP
25000
ITEM: NUMBER OF ATOMS
12
ITEM: BOX BOUNDS pp pp pp
-1.3500000000000000e+01 3.6500000000000000e+01
-2.5000000000000000e+01 2.5000000000000000e+01
-2.5000000000000000e+01 2.5000000000000000e+01
ITEM: ATOMS id type xs ys zs
1 1 0.181336 0.429038 0.268044
2 1 0.199316 0.443098 0.285123
3 1 0.226107 0.452493 0.277759
4 1 0.236042 0.479057 0.274399
5 1 0.249347 0.491684 0.25173
6 1 0.277388 0.497333 0.247419
7 1 0.303335 0.491047 0.232606
8 1 0.329875 0.501284 0.236511
9 1 0.357229 0.489753 0.23474
10 1 0.379588 0.493503 0.221857
11 1 0.403057 0.509266 0.227101
12 1 0.428137 0.498924 0.222815
ITEM: TIMESTEP
26000
ITEM: NUMBER OF ATOMS
12
ITEM: BOX BOUNDS pp pp pp
-1.3500000000000000e+01 3.6500000000000000e+01
-2.5000000000000000e+01 2.5000000000000000e+01
-2.5000000000000000e+01 2.5000000000000000e+01
ITEM: ATOMS id type xs ys zs
12 1 0.394718 0.47585 0.209791
5 1 0.261389 0.459766 0.293193
3 1 0.209749 0.488908 0.306139
4 1 0.228264 0.468064 0.295371
6 1 0.282285 0.462273 0.275591
7 1 0.306743 0.47216 0.273959
10 1 0.360887 0.490389 0.23784
11 1 0.384497 0.477709 0.233301
8 1 0.322014 0.494087 0.269476
9 1 0.336159 0.488488 0.248845
1 1 0.175051 0.5078 0.332586
2 1 0.184979 0.492189 0.316369
ITEM: TIMESTEP
27000
ITEM: NUMBER OF ATOMS
12
ITEM: BOX BOUNDS pp pp pp
-1.3500000000000000e+01 3.6500000000000000e+01
-2.5000000000000000e+01 2.5000000000000000e+01
-2.5000000000000000e+01 2.5000000000000000e+01
ITEM: ATOMS id type xs ys zs
12 1 0.400576 0.437962 0.195912
5 1 0.251648 0.474463 0.283465
3 1 0.21115 0.496879 0.303906
4 1 0.227382 0.488702 0.285452
6 1 0.277964 0.477447 0.276176
7 1 0.298963 0.472076 0.263404
10 1 0.362221 0.455425 0.223696
11 1 0.37833 0.436814 0.206807
8 1 0.323863 0.457819 0.2627
9 1 0.348238 0.460972 0.248925
1 1 0.198992 0.5484 0.314397
2 1 0.200776 0.524333 0.304905
ITEM: TIMESTEP
28000
ITEM: NUMBER OF ATOMS
12
ITEM: BOX BOUNDS pp pp pp
-1.3500000000000000e+01 3.6500000000000000e+01
-2.5000000000000000e+01 2.5000000000000000e+01
-2.5000000000000000e+01 2.5000000000000000e+01
ITEM: ATOMS id type xs ys zs
10 1 0.348059 0.452579 0.217726
11 1 0.370663 0.434954 0.203805
12 1 0.396943 0.442361 0.201295
8 1 0.309517 0.468589 0.244787
9 1 0.323432 0.460778 0.221643
3 1 0.221126 0.515542 0.335878
4 1 0.230896 0.510293 0.312138
2 1 0.19837 0.535296 0.349824
5 1 0.256681 0.497488 0.302972
6 1 0.278246 0.496623 0.28091
7 1 0.28368 0.482602 0.256278
1 1 0.166853 0.533375 0.35008
ITEM: TIMESTEP
29000
ITEM: NUMBER OF ATOMS
12
ITEM: BOX BOUNDS pp pp pp
-1.3500000000000000e+01 3.6500000000000000e+01
-2.5000000000000000e+01 2.5000000000000000e+01
-2.5000000000000000e+01 2.5000000000000000e+01
ITEM: ATOMS id type xs ys zs
10 1 0.327649 0.450966 0.20698
11 1 0.340277 0.462363 0.187686
9 1 0.298807 0.450152 0.218017
12 1 0.361055 0.481816 0.185399
5 1 0.228863 0.457094 0.309634
6 1 0.247346 0.441857 0.288594
7 1 0.259778 0.439741 0.258743
8 1 0.281001 0.453599 0.242846
3 1 0.193087 0.493174 0.315741
4 1 0.200287 0.463607 0.315069
2 1 0.168236 0.510234 0.318096
1 1 0.150591 0.526818 0.303548
ITEM: TIMESTEP
30000
ITEM: NUMBER OF ATOMS
12
ITEM: BOX BOUNDS pp pp pp
-1.3500000000000000e+01 3.6500000000000000e+01
-2.5000000000000000e+01 2.5000000000000000e+01
-2.5000000000000000e+01 2.5000000000000000e+01
ITEM: ATOMS id type xs ys zs
9 1 0.289588 0.439348 0.221291
10 1 0.300678 0.426803 0.198012
11 1 0.301007 0.434949 0.171047
12 1 0.318459 0.441831 0.151658
6 1 0.258403 0.451159 0.298621
7 1 0.272626 0.453524 0.276113
8 1 0.275576 0.439615 0.246051
1 1 0.140253 0.458125 0.275849
5 1 0.236441 0.464812 0.308104
3 1 0.184039 0.473959 0.304969
4 1 0.21128 0.456866 0.310032
2 1 0.16005 0.464221 0.298022
ITEM: TIMESTEP
31000
ITEM: NUMBER OF ATOMS
12
ITEM: BOX BOUNDS pp pp pp
-1.3500000000000000e+01 3.6500000000000000e+01
-2.5000000000000000e+01 2.5000000000000000e+01
-2.5000000000000000e+01 2.5000000000000000e+01
ITEM: ATOMS id type xs ys zs
12 1 0.351389 0.467468 0.186513
9 1 0.312872 0.436304 0.23301
10 1 0.322435 0.430803 0.210273
11 1 0.346698 0.447213 0.204447
1 1 0.187285 0.545808 0.257644
6 1 0.252414 0.456799 0.278406
7 1 0.276334 0.44833 0.269139
8 1 0.287728 0.438055 0.24547
3 1 0.197645 0.516998 0.302544
2 1 0.181089 0.53643 0.283498
4 1 0.214117 0.49482 0.295845
5 1 0.241853 0.479876 0.292182
ITEM: TIMESTEP
32000
ITEM: NUMBER OF ATOMS
12
ITEM: BOX BOUNDS pp pp pp
-1.3500000000000000e+01 3.6500000000000000e+01
-2.5000000000000000e+01 2.5000000000000000e+01
-2.5000000000000000e+01 2.5000000000000000e+01
ITEM: ATOMS id type xs ys zs
10 1 0.335735 0.444936 0.254299
11 1 0.358922 0.433865 0.238839
12 1 0.364523 0.436715 0.214861
6 1 0.242132 0.476699 0.293846
7 1 0.26638 0.458038 0.293778
8 1 0.286531 0.441584 0.278497
9 1 0.312733 0.439694 0.272341
3 1 0.199336 0.53891 0.313357
2 1 0.174059 0.547274 0.324115
4 1 0.223388 0.521551 0.312595
5 1 0.23921 0.505877 0.300633
1 1 0.151952 0.555008 0.308688
ITEM: TIMESTEP
33000
ITEM: NUMBER OF ATOMS
12
ITEM: BOX BOUNDS pp pp pp
-1.3500000000000000e+01 3.6500000000000000e+01
-2.5000000000000000e+01 2.5000000000000000e+01
-2.5000000000000000e+01 2.5000000000000000e+01
ITEM: ATOMS id type xs ys zs
12 1 0.381003 0.408043 0.283704
7 1 0.270756 0.46349 0.305565
8 1 0.283439 0.444046 0.287291
10 1 0.331934 0.413224 0.276204
11 1 0.355007 0.399849 0.278822
9 1 0.310138 0.424936 0.288012
6 1 0.249241 0.475626 0.310291
5 1 0.238762 0.496173 0.324327
4 1 0.21667 0.504786 0.339241
1 1 0.14181 0.548361 0.328653
3 1 0.197622 0.521874 0.333111
2 1 0.165447 0.528914 0.339648
ITEM: TIMESTEP
34000
ITEM: NUMBER OF ATOMS
12
ITEM: BOX BOUNDS pp pp pp
-1.3500000000000000e+01 3.6500000000000000e+01
-2.5000000000000000e+01 2.5000000000000000e+01
-2.5000000000000000e+01 2.5000000000000000e+01
ITEM: ATOMS id type xs ys zs
8 1 0.284784 0.450533 0.312511
12 1 0.274493 0.356985 0.292618
10 1 0.291333 0.402626 0.303365
11 1 0.270891 0.38162 0.301581
9 1 0.292976 0.427128 0.317502
7 1 0.262091 0.46609 0.329136
4 1 0.209268 0.517237 0.336687
3 1 0.184466 0.515961 0.331743
2 1 0.16544 0.531277 0.312708
6 1 0.250353 0.492295 0.331238
5 1 0.228238 0.501916 0.342402
1 1 0.138847 0.529692 0.298709
ITEM: TIMESTEP
35000
ITEM: NUMBER OF ATOMS
12
ITEM: BOX BOUNDS pp pp pp
-1.3500000000000000e+01 3.6500000000000000e+01
-2.5000000000000000e+01 2.5000000000000000e+01
-2.5000000000000000e+01 2.5000000000000000e+01
ITEM: ATOMS id type xs ys zs
12 1 0.245068 0.355304 0.326893
11 1 0.242041 0.379479 0.321324
10 1 0.253446 0.406334 0.31753
1 1 0.146701 0.550185 0.333779
8 1 0.275227 0.450038 0.30203
9 1 0.258473 0.428572 0.306636
4 1 0.21643 0.522041 0.318241
3 1 0.194077 0.530299 0.330376
2 1 0.168565 0.545896 0.325687
5 1 0.243659 0.515273 0.320508
7 1 0.274131 0.470731 0.321875
6 1 0.256032 0.490206 0.325338
ITEM: TIMESTEP
36000
ITEM: NUMBER OF ATOMS
12
ITEM: BOX BOUNDS pp pp pp
-1.3500000000000000e+01 3.6500000000000000e+01
-2.5000000000000000e+01 2.5000000000000000e+01
-2.5000000000000000e+01 2.5000000000000000e+01
ITEM: ATOMS id type xs ys zs
8 1 0.243278 0.418301 0.34085
12 1 0.264507 0.317795 0.323947
11 1 0.24504 0.340601 0.32839
10 1 0.247965 0.371854 0.325931
9 1 0.238788 0.394594 0.339082
4 1 0.202542 0.503193 0.345169
3 1 0.185025 0.518805 0.328251
5 1 0.214458 0.474582 0.352376
7 1 0.243137 0.442264 0.352459
6 1 0.23574 0.461905 0.350153
1 1 0.159238 0.565033 0.326879
2 1 0.166072 0.544474 0.333736
ITEM: TIMESTEP
37000
ITEM: NUMBER OF ATOMS
12
ITEM: BOX BOUNDS pp pp pp
-1.3500000000000000e+01 3.6500000000000000e+01
-2.5000000000000000e+01 2.5000000000000000e+01
-2.5000000000000000e+01 2.5000000000000000e+01
ITEM: ATOMS id type xs ys zs
12 1 0.262769 0.309771 0.330171
11 1 0.262271 0.335077 0.32487
10 1 0.251171 0.353564 0.311348
8 1 0.238967 0.402433 0.32167
9 1 0.24377 0.376743 0.32247
7 1 0.239521 0.425273 0.341167
4 1 0.189297 0.480912 0.369837
3 1 0.177873 0.494796 0.39227
5 1 0.215308 0.469351 0.36205
6 1 0.227177 0.444898 0.361243
1 1 0.139929 0.527485 0.411237
2 1 0.162298 0.518374 0.397199
ITEM: TIMESTEP
38000
ITEM: NUMBER OF ATOMS
12
ITEM: BOX BOUNDS pp pp pp
-1.3500000000000000e+01 3.6500000000000000e+01
-2.5000000000000000e+01 2.5000000000000000e+01
-2.5000000000000000e+01 2.5000000000000000e+01
ITEM: ATOMS id type xs ys zs
12 1 0.251645 0.342938 0.275145
11 1 0.251923 0.370198 0.287101
10 1 0.250179 0.385127 0.311611
9 1 0.231016 0.405339 0.321553
6 1 0.214747 0.477455 0.350203
8 1 0.230642 0.42432 0.337911
7 1 0.225274 0.452939 0.338069
4 1 0.18488 0.523228 0.347039
5 1 0.202679 0.505908 0.341048
1 1 0.10893 0.531379 0.32041
3 1 0.161595 0.527492 0.331146
2 1 0.130328 0.520703 0.333974
ITEM: TIMESTEP
39000
ITEM: NUMBER OF ATOMS
12
ITEM: BOX BOUNDS pp pp pp
-1.3500000000000000e+01 3.6500000000000000e+01
-2.5000000000000000e+01 2.5000000000000000e+01
-2.5000000000000000e+01 2.5000000000000000e+01
ITEM: ATOMS id type xs ys zs
12 1 0.265394 0.34246 0.295551
11 1 0.25116 0.360005 0.309129
8 1 0.223978 0.424986 0.311191
7 1 0.20211 0.443213 0.32013
10 1 0.254741 0.386078 0.311897
9 1 0.234553 0.403175 0.317021
1 1 0.100583 0.562997 0.338034
2 1 0.115205 0.539679 0.344678
6 1 0.191317 0.473869 0.333102
4 1 0.152251 0.50182 0.341481
5 1 0.178693 0.499172 0.330197
3 1 0.129286 0.513398 0.336252
ITEM: TIMESTEP
40000
ITEM: NUMBER OF ATOMS
12
ITEM: BOX BOUNDS pp pp pp
-1.3500000000000000e+01 3.6500000000000000e+01
-2.5000000000000000e+01 2.5000000000000000e+01
-2.5000000000000000e+01 2.5000000000000000e+01
ITEM: ATOMS id type xs ys zs
12 1 0.288743 0.353299 0.319194
11 1 0.283091 0.378118 0.319561
8 1 0.244509 0.438231 0.340854
7 1 0.219257 0.448655 0.356877
10 1 0.266975 0.394452 0.320049
9 1 0.265543 0.415197 0.337878
4 1 0.158286 0.487852 0.353772
3 1 0.159481 0.510289 0.370814
6 1 0.196857 0.462905 0.351771
5 1 0.171674 0.465152 0.35797
1 1 0.119381 0.544405 0.368854
2 1 0.148641 0.53407 0.371965
ITEM: TIMESTEP
41000
ITEM: NUMBER OF ATOMS
12
ITEM: BOX BOUNDS pp pp pp
-1.3500000000000000e+01 3.6500000000000000e+01
-2.5000000000000000e+01 2.5000000000000000e+01
-2.5000000000000000e+01 2.5000000000000000e+01
ITEM: ATOMS id type xs ys zs
12 1 0.259667 0.348537 0.329093
11 1 0.244667 0.367718 0.344729
7 1 0.202522 0.473068 0.347877
8 1 0.208638 0.44888 0.336544
10 1 0.238041 0.394993 0.352009
9 1 0.217317 0.422025 0.348239
2 1 0.119295 0.565436 0.379175
4 1 0.149507 0.520756 0.369623
3 1 0.129986 0.541463 0.366536
6 1 0.183654 0.484391 0.357111
5 1 0.166431 0.506305 0.354661
1 1 0.119285 0.593448 0.373104
ITEM: TIMESTEP
42000
ITEM: NUMBER OF ATOMS
12
ITEM: BOX BOUNDS pp pp pp
-1.3500000000000000e+01 3.6500000000000000e+01
-2.5000000000000000e+01 2.5000000000000000e+01
-2.5000000000000000e+01 2.5000000000000000e+01
ITEM: ATOMS id type xs ys zs
12 1 0.236458 0.346034 0.362415
11 1 0.21817 0.368723 0.363128
8 1 0.227485 0.437109 0.348652
9 1 0.213987 0.417339 0.355744
10 1 0.218903 0.391748 0.354505
4 1 0.197081 0.50433 0.394694
7 1 0.23633 0.457302 0.361374
6 1 0.226356 0.481623 0.368549
5 1 0.217415 0.494568 0.392018
2 1 0.170002 0.547125 0.382516
3 1 0.191749 0.534813 0.393035
1 1 0.156894 0.566979 0.362603
ITEM: TIMESTEP
43000
ITEM: NUMBER OF ATOMS
12
ITEM: BOX BOUNDS pp pp pp
-1.3500000000000000e+01 3.6500000000000000e+01
-2.5000000000000000e+01 2.5000000000000000e+01
-2.5000000000000000e+01 2.5000000000000000e+01
ITEM: ATOMS id type xs ys zs
11 1 0.209128 0.364702 0.342764
12 1 0.192922 0.349505 0.331429
8 1 0.215273 0.428445 0.380266
9 1 0.220027 0.405562 0.367812
10 1 0.210608 0.381447 0.365597
7 1 0.227206 0.448008 0.389399
6 1 0.215028 0.474527 0.397213
2 1 0.143899 0.543115 0.391221
1 1 0.132044 0.571543 0.380092
4 1 0.1891 0.521656 0.396978
5 1 0.208016 0.50271 0.391305
3 1 0.163856 0.531423 0.386802
ITEM: TIMESTEP
44000
ITEM: NUMBER OF ATOMS
12
ITEM: BOX BOUNDS pp pp pp
-1.3500000000000000e+01 3.6500000000000000e+01
-2.5000000000000000e+01 2.5000000000000000e+01
-2.5000000000000000e+01 2.5000000000000000e+01
ITEM: ATOMS id type xs ys zs
11 1 0.186845 0.360805 0.347062
12 1 0.183457 0.33719 0.33219
10 1 0.17562 0.393375 0.342643
8 1 0.168378 0.434045 0.371082
9 1 0.159781 0.412344 0.358334
1 1 0.183505 0.598091 0.470779
7 1 0.167073 0.466071 0.373162
6 1 0.178385 0.486656 0.392435
4 1 0.175992 0.525508 0.435232
5 1 0.176029 0.511426 0.409552
3 1 0.188705 0.543192 0.449023
2 1 0.179644 0.567332 0.464144
ITEM: TIMESTEP
45000
ITEM: NUMBER OF ATOMS
12
ITEM: BOX BOUNDS pp pp pp
-1.3500000000000000e+01 3.6500000000000000e+01
-2.5000000000000000e+01 2.5000000000000000e+01
-2.5000000000000000e+01 2.5000000000000000e+01
ITEM: ATOMS id type xs ys zs
11 1 0.178566 0.360345 0.358891
12 1 0.200846 0.344263 0.340497
10 1 0.188556 0.384755 0.373969
8 1 0.168378 0.432171 0.388877
9 1 0.175033 0.405901 0.39348
7 1 0.171799 0.45569 0.408568
6 1 0.158094 0.472334 0.416022
4 1 0.168622 0.526484 0.441001
5 1 0.161155 0.495471 0.436915
3 1 0.190088 0.536406 0.450663
1 1 0.216343 0.582118 0.455866
2 1 0.207038 0.562855 0.447674
ITEM: TIMESTEP
46000
ITEM: NUMBER OF ATOMS
12
ITEM: BOX BOUNDS pp pp pp
-1.3500000000000000e+01 3.6500000000000000e+01
-2.5000000000000000e+01 2.5000000000000000e+01
-2.5000000000000000e+01 2.5000000000000000e+01
ITEM: ATOMS id type xs ys zs
11 1 0.155328 0.386333 0.38575
12 1 0.169814 0.360105 0.382569
10 1 0.15539 0.417149 0.384898
8 1 0.116535 0.460674 0.412865
9 1 0.135425 0.434524 0.405964
7 1 0.125365 0.474865 0.433689
6 1 0.138909 0.496345 0.44124
4 1 0.171641 0.525917 0.466128
5 1 0.163398 0.506005 0.449008
3 1 0.194902 0.541982 0.474316
1 1 0.220774 0.58144 0.491056
2 1 0.199898 0.568823 0.483134
ITEM: TIMESTEP
47000
ITEM: NUMBER OF ATOMS
12
ITEM: BOX BOUNDS pp pp pp
-1.3500000000000000e+01 3.6500000000000000e+01
-2.5000000000000000e+01 2.5000000000000000e+01
-2.5000000000000000e+01 2.5000000000000000e+01
ITEM: ATOMS id type xs ys zs
12 1 0.182683 0.35194 0.386766
10 1 0.165866 0.398006 0.401395
8 1 0.142794 0.438278 0.426037
9 1 0.14256 0.41205 0.415331
11 1 0.171934 0.375434 0.386704
7 1 0.138145 0.447691 0.449427
6 1 0.130936 0.471629 0.461423
5 1 0.138177 0.486154 0.478964
4 1 0.135973 0.516477 0.484146
3 1 0.136651 0.534746 0.503425