LAMMPS (29 Aug 2024)
  using 8 OpenMP thread(s) per MPI task
Reading data file ...
  orthogonal box = (-13.5 -25 -25) to (36.5 25 25)
  1 by 1 by 1 MPI processor grid
  reading atoms ...
  12 atoms
  scanning bonds ...
  1 = max bonds/atom
  scanning angles ...
  1 = max angles/atom
  scanning dihedrals ...
  1 = max dihedrals/atom
  orthogonal box = (-13.5 -25 -25) to (36.5 25 25)
  1 by 1 by 1 MPI processor grid
  reading bonds ...
  11 bonds
  reading angles ...
  10 angles
  reading dihedrals ...
  9 dihedrals
Finding 1-2 1-3 1-4 neighbors ...
  special bond factors lj:    0        0        0       
  special bond factors coul:  0        0        0       
     2 = max # of 1-2 neighbors
     2 = max # of 1-3 neighbors
     4 = max # of 1-4 neighbors
     6 = max # of special neighbors
  special bonds CPU = 0.000 seconds
  read_data CPU = 0.003 seconds
12 atoms in group hep

CITE-CITE-CITE-CITE-CITE-CITE-CITE-CITE-CITE-CITE-CITE-CITE-CITE

Your simulation uses code contributions which should be cited:
- Type Label Framework: https://doi.org/10.1021/acs.jpcb.3c08419
The log file lists these citations in BibTeX format.

CITE-CITE-CITE-CITE-CITE-CITE-CITE-CITE-CITE-CITE-CITE-CITE-CITE

Generated 0 of 0 mixed pair_coeff terms from geometric mixing rule
Neighbor list info ...
  update: every = 1 steps, delay = 0 steps, check = yes
  max neighbors/atom: 2000, page size: 100000
  master list distance cutoff = 7.44
  ghost atom cutoff = 7.44
  binsize = 3.72, bins = 14 14 14
  2 neighbor lists, perpetual/occasional/extra = 2 0 0
  (1) pair lj/cut, perpetual, trim from (2)
      attributes: half, newton on, cut 2.8
      pair build: trim
      stencil: none
      bin: none
  (2) pair coul/debye, perpetual
      attributes: half, newton on
      pair build: half/bin/newton
      stencil: half/bin/3d
      bin: standard
Setting up cg style minimization ...
  Unit style    : lj
  Current step  : 0
Per MPI rank memory allocation (min/avg/max) = 17.62 | 17.62 | 17.62 Mbytes
   Step          Temp          TotEng         KinEng         PotEng         E_pair         E_coul         E_vdwl         E_bond        E_angle        E_dihed    
         0   0              1.1114057      0              1.1114057      0.086613873    0.086613873    0              0.0016202392   0.0047100005   1.0184615    
         4   0              1.1070372      0              1.1070372      0.0867219      0.0867219      0              0.0012064208   0.0016015329   1.0175073    
Loop time of 0.000183098 on 8 procs for 4 steps with 12 atoms

99.9% CPU use with 1 MPI tasks x 8 OpenMP threads

Minimization stats:
  Stopping criterion = linesearch alpha is zero
  Energy initial, next-to-last, final = 
      1.11140565634611   1.10703718167558   1.10703718167558
  Force two-norm initial, final = 2.1428615 1.0153165
  Force max component initial, final = 1.5756836 0.42699293
  Final line search alpha, max atom move = 1.2973299e-07 5.539507e-08
  Iterations, force evaluations = 4 47

MPI task timing breakdown:
Section |  min time  |  avg time  |  max time  |%varavg| %total
---------------------------------------------------------------
Pair    | 4.4593e-05 | 4.4593e-05 | 4.4593e-05 |   0.0 | 24.35
Bond    | 8.6142e-05 | 8.6142e-05 | 8.6142e-05 |   0.0 | 47.05
Neigh   | 0          | 0          | 0          |   0.0 |  0.00
Comm    | 4.383e-06  | 4.383e-06  | 4.383e-06  |   0.0 |  2.39
Output  | 0          | 0          | 0          |   0.0 |  0.00
Modify  | 0          | 0          | 0          |   0.0 |  0.00
Other   |            | 4.798e-05  |            |       | 26.20

Nlocal:             12 ave          12 max          12 min
Histogram: 1 0 0 0 0 0 0 0 0 0
Nghost:              0 ave           0 max           0 min
Histogram: 1 0 0 0 0 0 0 0 0 0
Neighs:              0 ave           0 max           0 min
Histogram: 1 0 0 0 0 0 0 0 0 0

Total # of neighbors = 0
Ave neighs/atom = 0
Ave special neighs/atom = 5
Neighbor list builds = 0
Dangerous builds = 0
Generated 0 of 0 mixed pair_coeff terms from geometric mixing rule
Setting up Verlet run ...
  Unit style    : lj
  Current step  : 4
  Time step     : 0.005
Per MPI rank memory allocation (min/avg/max) = 17.5 | 17.5 | 17.5 Mbytes
   Step          Temp          TotEng         KinEng         PotEng         E_pair         E_coul         E_vdwl         E_bond        E_angle        E_dihed    
         4   0              1.1070372      0              1.1070372      0.0867219      0.0867219      0              0.0012064208   0.0016015329   1.0175073    
       100   0.51940916     2.2408944      0.7141876      1.5267068      0.086419898    0.086419898    0              0.2764752      0.10981123     1.0540005    
       200   0.58213851     2.6361677      0.80044045     1.8357273      0.079923031    0.079923031    0              0.338791       0.23316103     1.1838522    
       300   1.0967685      3.4605723      1.5080567      1.9525156      0.070525706    0.070525706    0              0.38251929     0.29209625     1.2073743    
       400   1.3321414      3.5859197      1.8316944      1.7542253      0.076010291    0.076010291    0              0.31866628     0.19933569     1.160213     
       500   0.88335445     3.0345207      1.2146124      1.8199084      0.084113246    0.084113246    0              0.2958908      0.20390246     1.2360019    
       600   1.051336       3.3605918      1.445587       1.9150048      0.086629557    0.086629557    0              0.39196981     0.19292472     1.2434807    
       700   0.77312646     2.9017137      1.0630489      1.8386648      0.089769121    0.089769121    0              0.28013513     0.28903866     1.1797219    
       800   1.3152237      3.686889       1.8084326      1.8784563      0.089501404    0.089501404    0              0.16335692     0.37976852     1.2458295    
       900   1.1091365      3.566231       1.5250627      2.0411683      0.096684408    0.096684408    0              0.43268992     0.12500084     1.3867931    
      1000   1.3402931      3.8734554      1.842903       2.0305523      0.079227786    0.079227786    0              0.52026307     0.21460077     1.2164607    
      1100   0.8314958      3.8300299      1.1433067      2.6867232      0.078604035    0.078604035    0              1.0083488      0.33944658     1.2603238    
      1200   1.4810744      3.8841206      2.0364773      1.8476433      0.079075154    0.079075154    0              0.35990709     0.19229666     1.2163644    
      1300   1.1671601      3.5456972      1.6048451      1.9408521      0.086462727    0.086462727    0              0.29564165     0.26641407     1.2923336    
      1400   1.2610319      4.0002368      1.7339189      2.2663179      0.088670321    0.088670321    0              0.54241872     0.39963785     1.235591     
      1500   0.85822254     3.4517225      1.180056       2.2716665      0.093872944    0.093872944    0              0.4147932      0.3979541      1.3650463    
      1600   0.90232127     3.013001       1.2406917      1.7723092      0.086587235    0.086587235    0              0.26821639     0.16084245     1.2566631    
      1700   0.81324034     3.0116848      1.1182055      1.8934793      0.075017033    0.075017033    0              0.33045595     0.2756235      1.2123829    
      1800   0.92368713     3.2106906      1.2700698      1.9406208      0.071268262    0.071268262    0              0.31329552     0.38048256     1.1755745    
      1900   0.85034179     3.2104018      1.16922        2.0411819      0.076709909    0.076709909    0              0.54083669     0.1905902      1.2330451    
      2000   0.79248273     3.2138087      1.0896638      2.1241449      0.079086332    0.079086332    0              0.31556721     0.38330209     1.3461893    
      2100   0.75589135     3.0085509      1.0393506      1.9692003      0.088058521    0.088058521    0              0.20724483     0.39144695     1.28245      
      2200   1.1459887      4.007599       1.5757345      2.4318645      0.10221663     0.10221663     0              0.40285402     0.5882043      1.3385896    
      2300   1.0769135      3.6465306      1.480756       2.1657746      0.080633589    0.080633589    0              0.48470988     0.32152097     1.2789101    
      2400   1.0986014      3.862415       1.510577       2.351838       0.081017647    0.081017647    0              0.62738492     0.41604044     1.227395     
      2500   1.0769977      3.6242696      1.4808718      2.1433978      0.094119797    0.094119797    0              0.53042028     0.28129771     1.23756      
      2600   0.96340412     3.6109084      1.3246807      2.2862278      0.097081427    0.097081427    0              0.54657106     0.49371805     1.1488572    
      2700   0.97521888     3.106925       1.340926       1.7659991      0.085780005    0.085780005    0              0.2653955      0.22751901     1.1873046    
      2800   1.1280406      3.3930284      1.5510558      1.8419726      0.081099491    0.081099491    0              0.4000439      0.27582816     1.0850011    
      2900   0.84453853     3.2966023      1.1612405      2.1353619      0.082899501    0.082899501    0              0.60978603     0.18810537     1.2545709    
      3000   1.0182149      3.650649       1.4000455      2.2506035      0.082632502    0.082632502    0              0.52957884     0.4344274      1.2039647    
      3100   1.2796341      3.7620111      1.7594968      2.0025143      0.083580351    0.083580351    0              0.45300453     0.29622795     1.1697014    
      3200   0.80883746     3.1531865      1.1121515      2.041035       0.076415663    0.076415663    0              0.40362137     0.34783141     1.2131666    
      3300   1.1694806      3.8527204      1.6080359      2.2446845      0.074363758    0.074363758    0              0.39316481     0.55258801     1.2245679    
      3400   1.2967349      3.978516       1.7830105      2.1955055      0.071921569    0.071921569    0              0.54746373     0.22120751     1.3549127    
      3500   0.63256576     3.3576486      0.86977792     2.4878707      0.074392988    0.074392988    0              0.43726486     0.76061327     1.2155996    
      3600   1.7827501      4.5347661      2.4512814      2.0834848      0.087758224    0.087758224    0              0.18246024     0.5878826      1.2253837    
      3700   1.5856215      5.2238027      2.1802296      3.0435731      0.09504212     0.09504212     0              0.69644846     0.70787451     1.544208     
      3800   1.5875873      4.6813257      2.1829325      2.4983932      0.088471589    0.088471589    0              0.57938467     0.40939312     1.4211438    
      3900   0.91903508     4.0529329      1.2636732      2.7892596      0.096120639    0.096120639    0              0.39251271     0.69814847     1.6024778    
      4000   1.3317857      4.3993006      1.8312054      2.5680952      0.10194758     0.10194758     0              0.53136513     0.63311101     1.3016715    
      4100   0.84066725     3.8940099      1.1559175      2.7380924      0.12035961     0.12035961     0              1.1251078      0.37218379     1.1204412    
      4200   0.76374997     3.7876651      1.0501562      2.7375089      0.11914814     0.11914814     0              0.53971281     0.67060723     1.4080407    
      4300   0.62622301     3.2500221      0.86105664     2.3889654      0.10714919     0.10714919     0              0.53596111     0.47128812     1.274567     
      4400   0.84197512     3.2769314      1.1577158      2.1192156      0.1012957      0.1012957      0              0.38691845     0.4345705      1.1964309    
      4500   0.92262227     3.5217847      1.2686056      2.2531791      0.11893115     0.11893115     0              0.53031604     0.51168434     1.0922475    
      4600   1.0133899      3.6337903      1.3934111      2.2403792      0.12984986     0.12984986     0              0.8414778      0.079152338    1.1898992    
      4700   1.1847333      4.119317       1.6290083      2.4903087      0.096752805    0.096752805    0              0.65605273     0.42136061     1.3161425    
      4800   1.0675208      3.6484667      1.4678411      2.1806256      0.098423978    0.098423978    0              0.47953132     0.33886435     1.2638059    
      4900   1.3841337      4.0915377      1.9031838      2.1883539      0.12675729     0.12675729     0              0.16060637     0.42175935     1.4792309    
      5000   1.1985229      3.7537174      1.647969       2.1057484      0.1073732      0.1073732      0              0.2073145      0.62558863     1.1654721    
      5100   1.0442884      3.3568668      1.4358966      1.9209702      0.084736389    0.084736389    0              0.34856829     0.36966059     1.1180049    
      5200   1.2822763      4.1174584      1.7631299      2.3543285      0.070557834    0.070557834    0              0.43126047     0.563305       1.2892052    
      5300   1.2631407      3.8011392      1.7368185      2.0643207      0.0707774      0.0707774      0              0.7056465      0.075287076    1.2126098    
      5400   0.88573306     3.4710611      1.217883       2.2531782      0.074158125    0.074158125    0              0.52925445     0.55571466     1.0940509    
      5500   0.93149204     3.8351752      1.2808016      2.5543736      0.091552086    0.091552086    0              0.49803141     0.77956642     1.1852237    
      5600   1.2292337      3.7867951      1.6901964      2.0965987      0.10753436     0.10753436     0              0.20916254     0.46436617     1.3155357    
      5700   0.69315391     2.848459       0.95308662     1.8953724      0.10404919     0.10404919     0              0.34140174     0.26709393     1.1828275    
      5800   0.86958957     2.8808848      1.1956857      1.6851992      0.10086061     0.10086061     0              0.22668227     0.10804256     1.2496137    
      5900   0.68267873     3.2768189      0.93868325     2.3381357      0.10090098     0.10090098     0              0.46297944     0.53128742     1.2429678    
      6000   1.0624386      4.3534461      1.4608531      2.892593       0.077445382    0.077445382    0              1.0861262      0.41662826     1.3123932    
      6100   0.95083267     4.1587742      1.3073949      2.8513793      0.080708987    0.080708987    0              0.57593846     0.7591975      1.4355344    
      6200   0.94719474     4.2963468      1.3023928      2.993954       0.099074907    0.099074907    0              0.68932489     0.5051136      1.7004406    
      6300   1.224118       3.8138372      1.6831622      2.130675       0.089122439    0.089122439    0              0.37930524     0.51012683     1.1521205    
      6400   1.0353413      3.5242615      1.4235943      2.1006672      0.071063668    0.071063668    0              0.50880062     0.27188196     1.248921     
      6500   1.2521461      3.6979228      1.721701       1.9762218      0.071151107    0.071151107    0              0.37793064     0.31700467     1.2101354    
      6600   0.96270187     3.2089856      1.3237151      1.8852705      0.082708646    0.082708646    0              0.34784052     0.29683646     1.1578849    
      6700   0.86664984     3.1927719      1.1916435      2.0011283      0.091667045    0.091667045    0              0.27192497     0.39555187     1.2419845    
      6800   0.71379477     2.9351308      0.9814678      1.953663       0.093894636    0.093894636    0              0.56109921     0.16604185     1.1326273    
      6900   0.73944882     2.8906389      1.0167421      1.8738968      0.088969824    0.088969824    0              0.577257       0.073095308    1.1345747    
      7000   0.75576881     3.2061329      1.0391821      2.1669508      0.074891895    0.074891895    0              0.67894163     0.19881933     1.2142979    
      7100   1.0104543      3.5368986      1.3893747      2.1475239      0.076566985    0.076566985    0              0.40112292     0.50728859     1.1625454    
      7200   1.091903       3.2876498      1.5013666      1.7862832      0.077109537    0.077109537    0              0.26226402     0.2575355      1.1893741    
      7300   0.75111373     3.3949652      1.0327814      2.3621838      0.06966784     0.06966784     0              0.53567972     0.65097106     1.1058652    
      7400   0.7315202      3.145819       1.0058403      2.1399787      0.075046878    0.075046878    0              0.26299638     0.61422756     1.1877079    
      7500   0.82045528     3.1101056      1.128126       1.9819796      0.084605325    0.084605325    0              0.16220226     0.43887771     1.2962943    
      7600   0.61131963     2.7616567      0.8405645      1.9210922      0.082972885    0.082972885    0              0.2637868      0.33118342     1.2431491    
      7700   0.61323456     3.076847       0.84319752     2.2336495      0.085813215    0.085813215    0              0.22822429     0.64974089     1.2698711    
      7800   1.4094389      3.8828085      1.9379785      1.94483        0.082855051    0.082855051    0              0.37924972     0.11083904     1.3718861    
      7900   1.0424232      3.3817591      1.4333319      1.9484272      0.075134104    0.075134104    0              0.38845488     0.29646334     1.1883749    
      8000   1.2680515      3.8250196      1.7435709      2.0814487      0.077557052    0.077557052    0              0.39250791     0.49018083     1.1212029    
      8100   1.1845773      3.7376967      1.6287938      2.108903       0.084048877    0.084048877    0              0.32583337     0.4250662      1.2739545    
      8200   0.97452838     3.7136443      1.3399765      2.3736678      0.10063587     0.10063587     0              0.45231393     0.44905628     1.3716617    
      8300   0.88431004     3.5602058      1.2159263      2.3442795      0.11629162     0.11629162     0              0.54545874     0.31595045     1.3665787    
      8400   1.002827       3.5322243      1.3788872      2.1533371      0.12319114     0.12319114     0              0.19764357     0.60504349     1.2274589    
      8500   1.1142241      3.6465173      1.5320582      2.1144591      0.10430745     0.10430745     0              0.42656035     0.32562164     1.2579697    
      8600   0.91066632     3.5087232      1.2521662      2.256557       0.099972844    0.099972844    0              0.59128609     0.34585886     1.2194392    
      8700   0.77372631     3.2985955      1.0638737      2.2347218      0.082151221    0.082151221    0              0.39803536     0.51140065     1.2431346    
      8800   0.99949454     3.9117819      1.374305       2.5374769      0.073262828    0.073262828    0              1.0614026      0.1462412      1.2565703    
      8900   1.2354071      3.7551474      1.6986847      2.0564627      0.069984905    0.069984905    0              0.59879024     0.22013248     1.1675551    
      9000   0.81562348     3.3146718      1.1214823      2.1931895      0.088380027    0.088380027    0              0.65560445     0.1888937      1.2603113    
      9100   1.0485123      3.8153666      1.4417044      2.3736622      0.099110197    0.099110197    0              0.62142891     0.3672461      1.285877     
      9200   1.3426627      3.7812153      1.8461612      1.9350541      0.08414173     0.08414173     0              0.39734133     0.20712945     1.2464416    
      9300   1.6925447      4.2206995      2.3272489      1.8934506      0.074008296    0.074008296    0              0.52179111     0.13192882     1.1657223    
      9400   1.5299236      4.5055168      2.103645       2.4018718      0.0949312      0.0949312      0              0.47060345     0.47963462     1.3567025    
      9500   1.1137695      4.0786907      1.5314331      2.5472576      0.1264765      0.1264765      0              0.53251245     0.63147455     1.2567941    
      9600   1.3024859      4.0764192      1.7909181      2.2855011      0.12747425     0.12747425     0              0.66139786     0.1111415      1.3854875    
      9700   1.5931033      4.5676942      2.190517       2.3771772      0.10114839     0.10114839     0              0.36873245     0.76395587     1.1433404    
      9800   1.3518087      4.3105543      1.858737       2.4518173      0.074378926    0.074378926    0              0.86453076     0.25277049     1.2601371    
      9900   1.1537065      3.4694798      1.5863464      1.8831334      0.090418284    0.090418284    0              0.34219615     0.23087458     1.2196444    
     10000   0.87808249     3.1291225      1.2073634      1.9217591      0.096068269    0.096068269    0              0.27078435     0.40281514     1.1520913    
     10100   1.1989297      3.4233473      1.6485284      1.7748189      0.078170313    0.078170313    0              0.24250751     0.26037463     1.1937665    
     10200   1.0934156      4.0054811      1.5034465      2.5020346      0.0719094      0.0719094      0              0.84384842     0.38935598     1.1969208    
     10300   1.3942272      4.3114622      1.9170624      2.3943998      0.075661534    0.075661534    0              0.59831468     0.49674543     1.2236781    
     10400   1.1087236      4.1645401      1.5244949      2.6400452      0.08268834     0.08268834     0              0.49529159     0.36316816     1.6988971    
     10500   0.87151991     3.8065342      1.1983399      2.6081943      0.096336369    0.096336369    0              0.66355282     0.47019332     1.3781118    
     10600   0.94353272     3.7552245      1.2973575      2.457867       0.098795724    0.098795724    0              0.39218491     0.78487273     1.1820136    
     10700   0.76734658     3.3373326      1.0551015      2.282231       0.10236243     0.10236243     0              0.41726317     0.46361728     1.2989882    
     10800   0.86209689     3.1298801      1.1853832      1.9444969      0.091140021    0.091140021    0              0.22059109     0.28551944     1.3472464    
     10900   0.86761163     3.1425442      1.192966       1.9495782      0.076738983    0.076738983    0              0.30968912     0.31389573     1.2492544    
     11000   0.98202933     3.0990769      1.3502903      1.7487865      0.090590432    0.090590432    0              0.34519158     0.11694157     1.196063     
     11100   0.99671037     3.4584777      1.3704768      2.088001       0.088002967    0.088002967    0              0.30637836     0.52125423     1.1723654    
     11200   1.5061488      4.5453176      2.0709547      2.4743629      0.083912807    0.083912807    0              0.42011263     0.69423827     1.2760992    
     11300   1.0395299      4.4852401      1.4293536      3.0558866      0.08061972     0.08061972     0              0.67512157     0.85747967     1.4426656    
     11400   1.4386404      4.103736       1.9781305      2.1256055      0.087533415    0.087533415    0              0.51412652     0.1906423      1.3333032    
     11500   0.8910834      3.4155438      1.2252397      2.1903041      0.097804833    0.097804833    0              0.41731516     0.38018371     1.2950004    
     11600   0.84263478     3.3283387      1.1586228      2.1697159      0.089002586    0.089002586    0              0.48907622     0.264515       1.3271221    
     11700   1.2525284      3.9560498      1.7222265      2.2338233      0.08108366     0.08108366     0              0.61560306     0.26881033     1.2683263    
     11800   1.1176281      3.9475413      1.5367387      2.4108027      0.075992531    0.075992531    0              0.73065418     0.28545907     1.3186969    
     11900   0.94694417     3.4067867      1.3020482      2.1047384      0.072906657    0.072906657    0              0.44044764     0.27839111     1.312993     
     12000   1.8324947      4.4529556      2.5196802      1.9332754      0.072427521    0.072427521    0              0.37192956     0.28928252     1.1996358    
     12100   1.2246163      3.8375534      1.6838474      2.1537061      0.084111965    0.084111965    0              0.19820996     0.47329331     1.3980908    
     12200   1.7474214      4.7238414      2.4027044      2.3211371      0.11277157     0.11277157     0              0.34462388     0.52252509     1.3412165    
     12300   1.4107713      4.3395892      1.9398105      2.3997787      0.12143165     0.12143165     0              0.56558585     0.47309663     1.2396646    
     12400   1.0948987      4.280051       1.5054857      2.7745653      0.09416619     0.09416619     0              0.43606748     0.94996208     1.2943696    
     12500   0.86750841     4.1754263      1.1928241      2.9826023      0.076022632    0.076022632    0              0.88532812     0.47928896     1.5419625    
     12600   1.3650877      4.2623765      1.8769956      2.3853809      0.071776181    0.071776181    0              0.45396538     0.62717136     1.232468     
     12700   2.043408       4.8735993      2.8096861      2.0639132      0.083534678    0.083534678    0              0.22024091     0.48691389     1.2732238    
     12800   1.3279101      3.9713583      1.8258764      2.1454819      0.095516777    0.095516777    0              0.31709903     0.42845672     1.3044094    
     12900   0.83170443     3.3153394      1.1435936      2.1717458      0.086976897    0.086976897    0              0.51988623     0.29935633     1.2655264    
     13000   0.71312393     2.6690953      0.98054541     1.6885499      0.0862977      0.0862977      0              0.18425372     0.23480905     1.1831894    
     13100   1.0644467      3.3248273      1.4636142      1.8612132      0.08772999     0.08772999     0              0.24725965     0.40024651     1.125977     
     13200   0.97454697     3.4305659      1.3400021      2.0905638      0.084813683    0.084813683    0              0.40823004     0.38632441     1.2111957    
     13300   0.67648999     2.750123       0.93017373     1.8199493      0.10019671     0.10019671     0              0.25866572     0.14261902     1.3184679    
     13400   0.63275918     2.6009701      0.87004388     1.7309262      0.1047151      0.1047151      0              0.17839514     0.24537872     1.2024372    
     13500   0.80722614     3.1151373      1.1099359      2.0052013      0.079382172    0.079382172    0              0.32854818     0.33679763     1.2604733    
     13600   0.99963181     3.8500178      1.3744937      2.475524       0.077886209    0.077886209    0              0.80771855     0.30274949     1.2871698    
     13700   1.2686982      3.6573082      1.74446        1.9128482      0.081974337    0.081974337    0              0.45182926     0.17915082     1.1998938    
     13800   1.8170107      4.5763652      2.4983898      2.0779754      0.081240494    0.081240494    0              0.36175536     0.39705536     1.2379242    
     13900   1.5385042      4.1220555      2.1154432      2.0066123      0.078377792    0.078377792    0              0.24648832     0.52049818     1.161248     
     14000   1.584083       4.1238333      2.1781141      1.9457192      0.081277554    0.081277554    0              0.31722622     0.26622967     1.2809858    
     14100   0.87647385     3.1938198      1.2051515      1.9886683      0.084340916    0.084340916    0              0.2845668      0.16867531     1.4510852    
     14200   1.1887067      3.8077912      1.6344717      2.1733195      0.095743397    0.095743397    0              0.2620281      0.43026897     1.385279     
     14300   0.82759334     3.1609515      1.1379408      2.0230106      0.087166892    0.087166892    0              0.33424626     0.46750513     1.1340924    
     14400   0.96814326     3.2750214      1.331197       1.9438244      0.08573552     0.08573552     0              0.29887571     0.40979301     1.1494201    
     14500   0.97850012     3.7185495      1.3454377      2.3731118      0.089816192    0.089816192    0              0.72999246     0.34972903     1.2035742    
     14600   1.148039       3.9922546      1.5785537      2.4137009      0.096433916    0.096433916    0              0.60743306     0.51608433     1.1937496    
     14700   1.0810396      3.4917464      1.4864294      2.005317       0.087430806    0.087430806    0              0.45325635     0.18734886     1.2772809    
     14800   1.2469232      3.9980549      1.7145194      2.2835355      0.076540604    0.076540604    0              0.64613206     0.39340816     1.1674547    
     14900   1.0811063      3.5608724      1.4865212      2.0743512      0.079924862    0.079924862    0              0.3465986      0.30106323     1.3467645    
     15000   1.2239814      4.1499325      1.6829744      2.466958       0.094727932    0.094727932    0              0.54703107     0.46339903     1.3618       
     15100   1.0993074      3.8589904      1.5115476      2.3474428      0.097321892    0.097321892    0              0.60514155     0.31845402     1.3265253    
     15200   0.78103782     3.9365302      1.073927       2.8626032      0.095723262    0.095723262    0              0.90407726     0.58175393     1.2810487    
     15300   1.3872818      4.4613106      1.9075125      2.5537981      0.09009125     0.09009125     0              0.7802028      0.40835356     1.2751505    
     15400   1.0991541      4.1959187      1.5113369      2.6845818      0.086381689    0.086381689    0              0.84922899     0.51730836     1.2316628    
     15500   1.0126776      3.7563611      1.3924317      2.3639294      0.089482962    0.089482962    0              0.57616083     0.38899206     1.3092936    
     15600   1.1035606      3.6474297      1.5173958      2.1300339      0.093228542    0.093228542    0              0.3093264      0.46658592     1.260893     
     15700   1.0248755      3.8703724      1.4092038      2.4611686      0.1063678      0.1063678      0              0.4524739      0.47816585     1.4241611    
     15800   0.81102847     3.2425582      1.1151642      2.1273941      0.098168278    0.098168278    0              0.36691162     0.3647237      1.2975905    
     15900   1.094675       3.6091536      1.5051781      2.1039756      0.097840847    0.097840847    0              0.60156614     0.24006083     1.1645077    
     16000   1.1190288      3.9122626      1.5386646      2.373598       0.11202561     0.11202561     0              0.54643134     0.34252997     1.3726111    
     16100   1.1206049      4.0260695      1.5408318      2.4852377      0.12039297     0.12039297     0              0.47149124     0.52948152     1.363872     
     16200   1.0614208      3.6216784      1.4594536      2.1622248      0.11468236     0.11468236     0              0.42984736     0.21442583     1.4032693    
     16300   0.76890907     3.7868992      1.05725        2.7296492      0.1116003      0.1116003      0              0.41280365     0.51638913     1.6888561    
     16400   0.88837103     3.6553587      1.2215102      2.4338485      0.12291844     0.12291844     0              0.32018366     0.54363362     1.4471128    
     16500   0.79237471     4.5142007      1.0895152      3.4246854      0.13400486     0.13400486     0              0.74906463     0.79260328     1.7490127    
     16600   0.91497055     4.0005194      1.2580845      2.7424349      0.15115761     0.15115761     0              0.71944357     0.61416575     1.2576679    
     16700   1.113512       4.2361692      1.5310791      2.7050901      0.11879274     0.11879274     0              0.68767819     0.73493491     1.1636843    
     16800   0.95880359     3.9238624      1.3183549      2.6055074      0.093014015    0.093014015    0              0.63643513     0.59623348     1.2798248    
     16900   1.0706857      3.711857       1.4721929      2.2396642      0.090781218    0.090781218    0              0.46804786     0.35035459     1.3304805    
     17000   0.8452705      3.4927596      1.1622469      2.3305126      0.09312677     0.09312677     0              0.39509868     0.43195814     1.410329     
     17100   0.93215232     4.1000937      1.2817094      2.8183842      0.11760819     0.11760819     0              0.50090235     0.75194354     1.4479301    
     17200   1.3066436      4.0563802      1.7966349      2.2597452      0.1433622      0.1433622      0              0.36399052     0.40543815     1.3469544    
     17300   1.1745594      3.784905       1.6150192      2.1698858      0.12838074     0.12838074     0              0.34490655     0.48970172     1.2068968    
     17400   0.79710906     3.2525612      1.096025       2.1565362      0.11621746     0.11621746     0              0.4589551      0.2680078      1.3133559    
     17500   0.6100705      3.9218159      0.83884694     3.0829689      0.10000502     0.10000502     0              0.99074002     0.45293453     1.5392894    
     17600   1.5490794      4.1747545      2.1299842      2.0447703      0.081870668    0.081870668    0              0.57810449     0.095105288    1.2896898    
     17700   1.2713188      3.8189528      1.7480633      2.0708895      0.091047886    0.091047886    0              0.28613675     0.37797187     1.315733     
     17800   1.2246754      3.7178708      1.6839286      2.0339422      0.10872268     0.10872268     0              0.54241838     0.17539544     1.2074057    
     17900   1.1668104      3.9491774      1.6043644      2.3448131      0.12054016     0.12054016     0              0.31936355     0.61927196     1.2856374    
     18000   0.90920089     4.1542976      1.2501512      2.9041464      0.13827635     0.13827635     0              0.22577021     0.59003987     1.95006      
     18100   1.0071322      4.0327956      1.3848068      2.6479888      0.14051867     0.14051867     0              0.56099261     0.55649688     1.3899806    
     18200   1.4006844      4.2758449      1.925941       2.3499038      0.10492459     0.10492459     0              0.40632402     0.46807274     1.3705825    
     18300   0.82305005     3.2821386      1.1316938      2.1504448      0.097424905    0.097424905    0              0.44519171     0.28853336     1.3192949    
     18400   0.99885297     4.0023706      1.3734228      2.6289478      0.12304798     0.12304798     0              0.50129307     0.54401885     1.4605879    
     18500   0.91643345     3.6011603      1.260096       2.3410643      0.12217691     0.12217691     0              0.52865467     0.29831189     1.3919208    
     18600   0.81112663     3.2916837      1.1152991      2.1763846      0.11908223     0.11908223     0              0.45007232     0.27543667     1.3317934    
     18700   1.009119       3.7302079      1.3875386      2.3426693      0.10644908     0.10644908     0              0.54945497     0.3126824      1.3740828    
     18800   1.2621239      4.3230428      1.7354204      2.5876224      0.13792767     0.13792767     0              0.46440488     0.59065188     1.3946379    
     18900   0.99419704     4.0709763      1.3670209      2.7039554      0.15702892     0.15702892     0              0.57512745     0.33828832     1.6335107    
     19000   1.2230785      3.8517191      1.681733       2.1699861      0.11376336     0.11376336     0              0.47147353     0.25848078     1.3262684    
     19100   1.1398855      4.0843932      1.5673426      2.5170506      0.095642533    0.095642533    0              0.63460641     0.37931541     1.4074862    
     19200   1.1755858      4.173834       1.6164305      2.5574035      0.10315302     0.10315302     0              0.87004201     0.23845891     1.3457495    
     19300   1.4613514      4.561026       2.0093582      2.5516678      0.11978497     0.11978497     0              0.46582304     0.58203541     1.3840244    
     19400   0.90657954     4.0105503      1.2465469      2.7640034      0.12998672     0.12998672     0              0.43260063     0.73615283     1.4652632    
     19500   1.0546198      3.8674904      1.4501022      2.4173882      0.1111276      0.1111276      0              0.34531301     0.67024858     1.290699     
     19600   0.97207646     3.3747315      1.3366051      2.0381264      0.10544755     0.10544755     0              0.14880438     0.41587318     1.3680013    
     19700   1.1137413      3.7910304      1.5313943      2.2596361      0.087472042    0.087472042    0              0.4834932      0.39211609     1.2965548    
     19800   0.98056702     3.3720671      1.3482796      2.0237875      0.089149012    0.089149012    0              0.42921042     0.35240202     1.153026     
     19900   1.0780455      3.4015737      1.4823126      1.9192611      0.097362876    0.097362876    0              0.411438       0.13153144     1.2789288    
     20000   0.91150722     3.5377427      1.2533224      2.2844202      0.106593       0.106593       0              0.3413733      0.28806555     1.5483884    
     20100   1.170264       3.971154       1.609113       2.362041       0.11501192     0.11501192     0              0.31685866     0.70010433     1.2300661    
     20200   1.4093952      4.1250755      1.9379185      2.187157       0.091957184    0.091957184    0              0.58835749     0.32020595     1.1866364    
     20300   1.0344821      4.3254908      1.4224129      2.9030779      0.097348682    0.097348682    0              0.55320538     0.80941964     1.4431042    
     20400   1.2995393      3.827618       1.7868665      2.0407515      0.11881069     0.11881069     0              0.33295979     0.37782587     1.2111551    
     20500   1.2068978      4.2634177      1.6594844      2.6039333      0.11147835     0.11147835     0              0.41984541     0.86037639     1.2122331    
     20600   1.2398767      4.2329902      1.7048304      2.5281598      0.095227264    0.095227264    0              0.20207309     0.76560554     1.4652539    
     20700   1.6519943      4.08448        2.2714921      1.8129879      0.079945931    0.079945931    0              0.275436       0.26878122     1.1888247    
     20800   1.7663288      4.1413826      2.428702       1.7126806      0.080405162    0.080405162    0              0.25872798     0.20467301     1.1688744    
     20900   1.0571105      3.5218641      1.4535269      2.0683371      0.076046461    0.076046461    0              0.30439781     0.39838596     1.2895069    
     21000   1.3664047      4.1924039      1.8788065      2.3135975      0.067720869    0.067720869    0              0.48211851     0.42360707     1.340151     
     21100   1.2207656      4.2939547      1.6785527      2.615402       0.059472709    0.059472709    0              0.67180225     0.51187427     1.3722528    
     21200   1.0789214      3.6109156      1.4835169      2.1273987      0.066965433    0.066965433    0              0.41585497     0.46087224     1.1837061    
     21300   1.2069333      3.8756352      1.6595333      2.2161019      0.09098083     0.09098083     0              0.30600936     0.60450388     1.2146078    
     21400   0.83805259     3.7175088      1.1523223      2.5651865      0.10276448     0.10276448     0              0.51600596     0.70044054     1.2459755    
     21500   0.7839388      3.3328862      1.0779159      2.2549704      0.087946491    0.087946491    0              0.2830012      0.42653826     1.4574844    
     21600   1.2145836      3.8732279      1.6700524      2.2031755      0.079038976    0.079038976    0              0.39103495     0.55741224     1.1756893    
     21700   1.598397       4.3258663      2.1977959      2.1280705      0.080053396    0.080053396    0              0.55032717     0.3298404      1.1678495    
     21800   1.5253079      4.3863978      2.0972983      2.2890995      0.089976595    0.089976595    0              0.50388843     0.34283627     1.3523982    
     21900   1.3112594      3.8450992      1.8029817      2.0421175      0.087567888    0.087567888    0              0.5389562      0.20210324     1.2134902    
     22000   1.1043694      3.8166807      1.5185079      2.2981728      0.083152153    0.083152153    0              0.46865734     0.36727164     1.3790917    
     22100   0.88970303     3.3038868      1.2233417      2.0805451      0.080279362    0.080279362    0              0.43919199     0.36611761     1.1949562    
     22200   0.94342113     3.1040901      1.2972041      1.806886       0.083668762    0.083668762    0              0.28326734     0.2486588      1.1912911    
     22300   1.0032215      3.3658326      1.3794296      1.986403       0.095025662    0.095025662    0              0.30559895     0.35408275     1.2316956    
     22400   0.83736217     3.2812019      1.151373       2.1298289      0.085347021    0.085347021    0              0.2597574      0.59049348     1.194231     
     22500   1.1983989      3.5059793      1.6477985      1.8581808      0.073996689    0.073996689    0              0.24074312     0.20004302     1.343398     
     22600   1.1682328      4.047561       1.6063201      2.441241       0.072465358    0.072465358    0              0.86106433     0.23372355     1.2739877    
     22700   0.96721574     3.6139855      1.3299216      2.2840638      0.083274626    0.083274626    0              0.58379516     0.43054421     1.1864498    
     22800   1.1181531      3.8112275      1.5374605      2.2737669      0.091681182    0.091681182    0              0.80908155     0.20921894     1.1637852    
     22900   1.0650644      3.9563523      1.4644636      2.4918888      0.085931715    0.085931715    0              0.78157756     0.4571288      1.1672507    
     23000   0.90135233     3.1697187      1.2393595      1.9303592      0.085259304    0.085259304    0              0.27947436     0.15378281     1.4118427    
     23100   1.3047014      3.6150435      1.7939644      1.8210791      0.082932059    0.082932059    0              0.1978936      0.2504484      1.2898051    
     23200   0.61512649     3.0948653      0.84579892     2.2490664      0.079948492    0.079948492    0              0.60041881     0.36287341     1.2058257    
     23300   1.7006737      4.0484918      2.3384264      1.7100654      0.09923988     0.09923988     0              0.24599057     0.1537646      1.2110704    
     23400   1.4112194      3.8108659      1.9404267      1.8704391      0.10199917     0.10199917     0              0.15411724     0.32380181     1.2905209    
     23500   1.3345049      3.7929155      1.8349442      1.9579713      0.083313341    0.083313341    0              0.24084493     0.38495652     1.2488565    
     23600   1.4126417      4.5535224      1.9423823      2.6111401      0.065832379    0.065832379    0              0.78339499     0.40072394     1.3611887    
     23700   0.81341397     3.8732974      1.1184442      2.7548532      0.057488489    0.057488489    0              1.216048       0.27265413     1.2086626    
     23800   1.2867305      3.5958604      1.7692545      1.8266059      0.066577245    0.066577245    0              0.36926786     0.11716198     1.2735988    
     23900   0.94138031     3.2481566      1.2943979      1.9537586      0.084019405    0.084019405    0              0.29303129     0.38983295     1.186875     
     24000   0.96566952     3.0700399      1.3277956      1.7422444      0.10260918     0.10260918     0              0.35133357     0.15791783     1.1303838    
     24100   1.3228065      4.0387822      1.818859       2.2199232      0.09893176     0.09893176     0              0.22425906     0.59107781     1.3056545    
     24200   1.3503312      4.1676131      1.8567055      2.3109076      0.090332959    0.090332959    0              0.37875942     0.67155922     1.170256     
     24300   1.0502097      3.1977471      1.4440384      1.7537087      0.083215183    0.083215183    0              0.24492188     0.13364051     1.2919312    
     24400   1.1370431      3.7606165      1.5634343      2.1971822      0.082853006    0.082853006    0              0.46657619     0.37191556     1.2758375    
     24500   0.81322823     4.1860497      1.1181888      3.0678609      0.076345179    0.076345179    0              0.8166339      0.72022649     1.4546553    
     24600   1.3611429      4.0116855      1.8715715      2.1401139      0.089024608    0.089024608    0              0.55870849     0.32442511     1.1679557    
     24700   1.2407336      3.6944897      1.7060086      1.9884811      0.074314571    0.074314571    0              0.32387342     0.4670937      1.1231994    
     24800   1.0940752      3.9187603      1.5043535      2.4144068      0.062181256    0.062181256    0              0.52463239     0.49092704     1.3366661    
     24900   1.0397792      3.6271382      1.4296964      2.1974418      0.067661075    0.067661075    0              0.60610388     0.33365529     1.1900216    
     25000   1.6551868      4.1745647      2.2758819      1.8986828      0.091723251    0.091723251    0              0.11898727     0.50352786     1.1844445    
     25100   1.3111871      4.2680118      1.8028823      2.4651295      0.12053018     0.12053018     0              0.35091721     0.73117141     1.2625107    
     25200   1.5500732      4.2676196      2.1313506      2.136269       0.10014822     0.10014822     0              0.54562964     0.19092334     1.2995678    
     25300   1.0990766      3.7721873      1.5112303      2.260957       0.079144291    0.079144291    0              0.60494116     0.35915141     1.2177201    
     25400   1.1998274      3.8849815      1.6497627      2.2352188      0.089441198    0.089441198    0              0.36124764     0.65424139     1.1302885    
     25500   1.1834237      3.7056147      1.6272076      2.0784071      0.085988051    0.085988051    0              0.58114818     0.14376165     1.2675093    
     25600   1.5083987      4.3007725      2.0740482      2.2267244      0.082667868    0.082667868    0              0.46907121     0.34512508     1.3298602    
     25700   1.2322099      3.7485378      1.6942886      2.0542492      0.077440385    0.077440385    0              0.38634955     0.39541362     1.1950456    
     25800   0.77658103     3.4285666      1.0677989      2.3607677      0.084295173    0.084295173    0              0.50629588     0.45301704     1.3171596    
     25900   1.4482146      3.8634621      1.9912951      1.872167       0.094113705    0.094113705    0              0.18609603     0.39184325     1.2001141    
     26000   1.2629489      4.2520489      1.7365548      2.5154942      0.11179211     0.11179211     0              0.44166831     0.75439611     1.2076376    
     26100   0.7569584      3.7974276      1.0408178      2.7566098      0.10738138     0.10738138     0              0.40990794     0.54696784     1.6923526    
     26200   1.0419746      3.5475988      1.432715       2.1148838      0.11152174     0.11152174     0              0.51133073     0.2667397      1.2252916    
     26300   1.4377435      4.1638242      1.9768973      2.1869269      0.10791171     0.10791171     0              0.45104608     0.24446199     1.3835071    
     26400   0.90623374     4.0057712      1.2460714      2.7596998      0.13415101     0.13415101     0              0.68125287     0.60338694     1.340909     
     26500   0.57745088     3.9245998      0.79399496     3.1306049      0.13797814     0.13797814     0              0.98235545     0.45424941     1.5560219    
     26600   1.1670315      3.8217619      1.6046683      2.2170936      0.095690401    0.095690401    0              0.54359365     0.39041488     1.1873947    
     26700   0.92506834     3.5393119      1.271969       2.267343       0.070230425    0.070230425    0              0.86077647     0.12392676     1.2124093    
     26800   0.87072399     2.9140685      1.1972455      1.716823       0.079343485    0.079343485    0              0.33054789     0.13881996     1.1681117    
     26900   1.128217       3.6265854      1.5512984      2.075287       0.096448651    0.096448651    0              0.3478743      0.36279144     1.2681726    
     27000   1.186652       3.6494506      1.6316465      2.0178042      0.094986555    0.094986555    0              0.21900093     0.44785866     1.255958     
     27100   1.2343976      4.0512889      1.6972967      2.3539922      0.10584715     0.10584715     0              0.55023252     0.18866569     1.5092468    
     27200   0.7230384      3.8751167      0.99417779     2.8809389      0.10450964     0.10450964     0              0.84079048     0.4150967      1.520542     
     27300   0.84188489     3.2607676      1.1575917      2.1031759      0.085316396    0.085316396    0              0.43286081     0.25190665     1.333092     
     27400   1.098534       3.7852897      1.5104842      2.2748055      0.074588973    0.074588973    0              0.50943066     0.28011478     1.4106711    
     27500   1.1056245      3.8572478      1.5202337      2.3370141      0.072628992    0.072628992    0              0.88019084     0.20385311     1.1803411    
     27600   0.74209924     3.9488324      1.0203865      2.9284459      0.074582232    0.074582232    0              1.1714235      0.43590004     1.2465401    
     27700   1.4420061      4.2885814      1.9827584      2.305823       0.075508799    0.075508799    0              0.55114612     0.40167894     1.2774891    
     27800   0.99748654     3.5141673      1.371544       2.1426233      0.081782334    0.081782334    0              0.5755033      0.28572793     1.1996097    
     27900   0.8215452      3.7388443      1.1296247      2.6092196      0.086211709    0.086211709    0              1.1074854      0.22358996     1.1919326    
     28000   1.1364897      3.8710485      1.5626733      2.3083752      0.07114798     0.07114798     0              0.54977349     0.34879098     1.3386628    
     28100   0.83059047     3.806229       1.1420619      2.6641671      0.054218155    0.054218155    0              0.99559738     0.38369565     1.2306559    
     28200   1.3864809      3.7468278      1.9064113      1.8404166      0.065632793    0.065632793    0              0.3602839      0.18615849     1.2283414    
     28300   0.57854921     3.0074655      0.79550517     2.2119603      0.0820128      0.0820128      0              0.40707065     0.35157134     1.3713056    
     28400   0.71769923     2.9531839      0.98683644     1.9663474      0.085253471    0.085253471    0              0.30099271     0.24548472     1.3346165    
     28500   0.93303604     3.1104931      1.2829246      1.8275686      0.081522308    0.081522308    0              0.46160876     0.16782971     1.1166078    
     28600   0.52215095     2.4876273      0.71795756     1.7696698      0.072596443    0.072596443    0              0.30339579     0.15292806     1.2407495    
     28700   0.7026888      2.9826673      0.9661971      2.0164702      0.079313417    0.079313417    0              0.43804017     0.26659046     1.2325262    
     28800   0.90191738     3.514466       1.2401364      2.2743296      0.082564934    0.082564934    0              0.54763998     0.38555005     1.2585746    
     28900   1.552823       4.2073196      2.1351316      2.072188       0.086149586    0.086149586    0              0.21039375     0.4013061      1.3743386    
     29000   1.1407096      3.83905        1.5684757      2.2705743      0.072751612    0.072751612    0              0.46158478     0.33700559     1.3992323    
     29100   0.96487584     3.6040311      1.3267043      2.2773268      0.092998357    0.092998357    0              0.49181586     0.36625715     1.3262554    
     29200   0.6251777      3.3382966      0.85961934     2.4786772      0.11506513     0.11506513     0              0.67689628     0.49118272     1.1955331    
     29300   1.0690304      3.8570081      1.4699167      2.3870914      0.12011551     0.12011551     0              0.61995919     0.22169869     1.425318     
     29400   1.229186       3.8750181      1.6901307      2.1848874      0.10320655     0.10320655     0              0.42812923     0.36393592     1.2896157    
     29500   0.88389942     3.3321748      1.2153617      2.1168131      0.087296662    0.087296662    0              0.51403208     0.26209784     1.2533865    
     29600   1.0681685      3.4473627      1.4687317      1.978631       0.088389512    0.088389512    0              0.34854653     0.35551671     1.1861782    
     29700   1.0876996      3.7906357      1.495587       2.2950487      0.10967174     0.10967174     0              0.57971428     0.32771958     1.2779432    
     29800   0.9493638      3.5451083      1.3053752      2.239733       0.12302701     0.12302701     0              0.27959619     0.4257063      1.4114035    
     29900   0.91328497     3.5898669      1.2557668      2.3341001      0.11039004     0.11039004     0              0.46023428     0.47311054     1.2903652    
     30000   1.6011894      4.2972737      2.2016355      2.0956383      0.10191651     0.10191651     0              0.38260621     0.39599851     1.215117     
     30100   1.316777       3.6038287      1.8105684      1.7932603      0.094331371    0.094331371    0              0.19718996     0.31891965     1.1828193    
     30200   1.2978728      3.9660905      1.7845751      2.1815154      0.08742777     0.08742777     0              0.52516417     0.32837471     1.2405487    
     30300   1.317966       4.1571221      1.8122033      2.3449189      0.084363892    0.084363892    0              0.65631515     0.31473857     1.2895013    
     30400   0.93383585     3.4297276      1.2840243      2.1457033      0.098161858    0.098161858    0              0.5007309      0.32699112     1.2198194    
     30500   1.0136351      3.847287       1.3937483      2.4535388      0.11178504     0.11178504     0              0.45025996     0.45901669     1.4324771    
     30600   1.1271774      3.4478038      1.5498689      1.8979349      0.12122748     0.12122748     0              0.22796971     0.39911809     1.1496196    
     30700   0.63155988     2.9705145      0.86839483     2.1021196      0.11364365     0.11364365     0              0.28727399     0.34483224     1.3563698    
     30800   0.97449943     3.2759238      1.3399367      1.9359871      0.089441293    0.089441293    0              0.23592584     0.28961922     1.3210008    
     30900   0.81073569     3.4547799      1.1147616      2.3400183      0.084758443    0.084758443    0              0.70309694     0.32572942     1.2264335    
     31000   0.6765183      3.5677209      0.93021267     2.6375082      0.10292262     0.10292262     0              0.2617411      0.60298776     1.6698567    
     31100   1.6529623      4.373325       2.2728231      2.1005019      0.10566211     0.10566211     0              0.28349161     0.55200031     1.1593478    
     31200   0.98217478     3.4871235      1.3504903      2.1366332      0.096688489    0.096688489    0              0.39307736     0.39404984     1.2528175    
     31300   0.93032006     3.6598436      1.2791901      2.3806535      0.085159775    0.085159775    0              0.57464307     0.12336736     1.5974833    
     31400   1.2603922      3.5799         1.7330393      1.8468607      0.096722083    0.096722083    0              0.10689065     0.47317573     1.1700722    
     31500   0.91451966     3.4177479      1.2574645      2.1602834      0.096719332    0.096719332    0              0.39855004     0.44144712     1.2235669    
     31600   0.91737282     3.6463964      1.2613876      2.3850087      0.094296505    0.094296505    0              0.5298826      0.37211095     1.3887187    
     31700   0.69219783     3.3131997      0.95177201     2.3614277      0.10671953     0.10671953     0              0.69880993     0.34855109     1.2073472    
     31800   1.2327133      3.4902495      1.6949807      1.7952687      0.08161151     0.08161151     0              0.23777972     0.37080939     1.1050681    
     31900   0.53779764     3.182563       0.73947175     2.4430913      0.069133434    0.069133434    0              0.38235405     0.6612562      1.3303476    
     32000   0.73782498     3.0040408      1.0145093      1.9895314      0.081285566    0.081285566    0              0.27980648     0.47349448     1.1549449    
     32100   0.55012262     2.6622832      0.7564186      1.9058646      0.10222407     0.10222407     0              0.39004675     0.27812534     1.1354685    
     32200   0.99465668     3.4171542      1.3676529      2.0495013      0.11920654     0.11920654     0              0.38877116     0.40815971     1.1333639    
     32300   1.1734269      3.9217892      1.613462       2.3083272      0.098900441    0.098900441    0              0.12855996     0.68810828     1.3927585    
     32400   1.3266311      3.8810904      1.8241178      2.0569727      0.08670493     0.08670493     0              0.53357583     0.31991133     1.1167806    
     32500   1.0310809      4.119121       1.4177362      2.7013848      0.085555065    0.085555065    0              0.63208054     0.51973771     1.4640115    
     32600   1.1577073      4.1767994      1.5918475      2.5849519      0.082937038    0.082937038    0              0.93094807     0.3884598      1.182607     
     32700   1.1388956      3.8851377      1.5659815      2.3191563      0.095219928    0.095219928    0              0.32138567     0.67997635     1.2225743    
     32800   1.4255164      4.2121226      1.960085       2.2520376      0.12356511     0.12356511     0              0.53831861     0.40986374     1.1802902    
     32900   0.95342662     3.9673982      1.3109616      2.6564366      0.10458985     0.10458985     0              0.59492305     0.78195723     1.1749665    
     33000   1.696545       4.504423       2.3327494      2.1716736      0.078978981    0.078978981    0              0.57032116     0.20058135     1.3217921    
     33100   0.77869109     4.3992327      1.0707002      3.3285324      0.062732797    0.062732797    0              1.2606429      0.72998271     1.275174     
     33200   1.5369095      4.3649385      2.1132506      2.2516879      0.07244542     0.07244542     0              0.58373598     0.40109599     1.1944105    
     33300   1.205372       3.45227        1.6573866      1.7948834      0.076478185    0.076478185    0              0.33939116     0.21146179     1.1675523    
     33400   1.3272296      4.0494663      1.8249407      2.2245255      0.091535036    0.091535036    0              0.38260466     0.52185763     1.2285282    
     33500   0.73434643     3.3415283      1.0097263      2.3318019      0.11891001     0.11891001     0              0.44915833     0.42031472     1.3434189    
     33600   1.0153715      3.2942863      1.3961358      1.8981505      0.11632366     0.11632366     0              0.26774427     0.38456694     1.1295156    
     33700   1.338159       3.6384014      1.8399687      1.7984327      0.079056249    0.079056249    0              0.16200645     0.39583227     1.1615378    
     33800   0.73853592     3.2823975      1.0154869      2.2669106      0.068398107    0.068398107    0              0.46167846     0.30639504     1.430439     
     33900   1.0184776      3.4890992      1.4004067      2.0886925      0.090913246    0.090913246    0              0.36121176     0.29770138     1.3388662    
     34000   1.0992594      3.552607       1.5114817      2.0411253      0.11181115     0.11181115     0              0.37868405     0.26482903     1.2858011    
     34100   1.5974209      4.2941356      2.1964538      2.0976818      0.1091702      0.1091702      0              0.45837669     0.41257665     1.1175582    
     34200   0.91287293     3.7046445      1.2552003      2.4494443      0.11698243     0.11698243     0              0.46183695     0.53529843     1.3353265    
     34300   1.064519       3.6715414      1.4637137      2.2078277      0.11483017     0.11483017     0              0.39595246     0.48990347     1.2071416    
     34400   1.1543436      4.1271756      1.5872224      2.5399532      0.090327576    0.090327576    0              0.78312599     0.51439212     1.1521075    
     34500   1.0873332      3.5508857      1.4950831      2.0558026      0.083501481    0.083501481    0              0.52163147     0.25300934     1.1976603    
     34600   1.0463635      3.9234079      1.4387498      2.4846581      0.11526146     0.11526146     0              0.43963398     0.77283687     1.1569258    
     34700   1.120097       3.8556079      1.5401334      2.3154745      0.12247988     0.12247988     0              0.45982029     0.39815429     1.33502      
     34800   0.79388351     3.3700559      1.0915898      2.2784661      0.12007892     0.12007892     0              0.13734118     0.65392303     1.367123     
     34900   0.94199682     3.7038992      1.2952456      2.4086536      0.10732913     0.10732913     0              0.27117418     0.49542114     1.5347291    
     35000   1.1830517      4.2458118      1.6266961      2.6191157      0.12665754     0.12665754     0              0.28693525     0.81077368     1.3947492    
     35100   1.0353891      4.3487447      1.42366        2.9250847      0.1221821      0.1221821      0              0.41512547     0.58743407     1.800343     
     35200   1.0939841      4.3509685      1.5042282      2.8467403      0.11643555     0.11643555     0              0.27387509     0.76114759     1.6952821    
     35300   1.6598164      4.6171681      2.2822475      2.3349206      0.13675489     0.13675489     0              0.3457713      0.3513531      1.5010413    
     35400   1.2798947      4.5817745      1.7598552      2.8219193      0.13972329     0.13972329     0              0.59331821     0.48944917     1.5994286    
     35500   0.91001417     4.4737037      1.2512695      3.2224342      0.12582994     0.12582994     0              0.72299581     0.70695709     1.6666514    
     35600   1.1912903      4.0879832      1.6380242      2.449959       0.12951889     0.12951889     0              0.4305921      0.31944456     1.5704035    
     35700   1.4068393      4.5188658      1.934404       2.5844618      0.12411916     0.12411916     0              0.45952914     0.73921327     1.2616003    
     35800   1.3739803      4.2781035      1.889223       2.3888805      0.094820511    0.094820511    0              0.51378501     0.46934711     1.3109279    
     35900   0.91297881     4.0935932      1.2553459      2.8382474      0.085104483    0.085104483    0              0.3731465      0.82228753     1.5577088    
     36000   1.5951691      4.7690592      2.1933575      2.5757017      0.10590744     0.10590744     0              0.95965349     0.21874065     1.2914001    
     36100   1.1366993      3.6792675      1.5629616      2.116306       0.10428552     0.10428552     0              0.29324272     0.32351023     1.3952675    
     36200   1.1824727      3.2492756      1.6259         1.6233756      0.093656507    0.093656507    0              0.1823957      0.095017605    1.2523058    
     36300   1.2378741      3.5482014      1.7020769      1.8461245      0.085806821    0.085806821    0              0.36859892     0.19315701     1.1985617    
     36400   1.0149156      3.5082251      1.395509       2.1127161      0.080129859    0.080129859    0              0.49911262     0.28925304     1.2442206    
     36500   0.71503319     3.6126407      0.98317064     2.62947        0.081225632    0.081225632    0              0.95242035     0.33821717     1.2576069    
     36600   1.1997899      3.6470816      1.6497111      1.9973705      0.076473647    0.076473647    0              0.4246933      0.3298417      1.1663618    
     36700   0.91365508     3.0171428      1.2562757      1.7608671      0.08445936     0.08445936     0              0.32000759     0.199466       1.1569341    
     36800   0.65763934     2.796644       0.90425409     1.8923899      0.086663455    0.086663455    0              0.33185903     0.31009707     1.1637703    
     36900   0.48728636     2.8111153      0.67001875     2.1410965      0.089560327    0.089560327    0              0.31143848     0.41503254     1.3250652    
     37000   0.67923008     2.755886       0.93394136     1.8219446      0.085730099    0.085730099    0              0.19555749     0.3509689      1.1896881    
     37100   0.80631441     2.9703734      1.1086823      1.8616911      0.084328694    0.084328694    0              0.25223354     0.21411395     1.3110149    
     37200   1.0882303      3.1874052      1.4963166      1.6910886      0.09972358     0.09972358     0              0.15830622     0.27264577     1.160413     
     37300   1.2062193      3.9209397      1.6585515      2.2623882      0.10371848     0.10371848     0              0.41492455     0.20330727     1.5404379    
     37400   1.1334726      3.8429593      1.5585248      2.2844345      0.10461048     0.10461048     0              0.55006367     0.28661119     1.3431492    
     37500   1.1544435      3.7053953      1.5873599      2.1180355      0.10038393     0.10038393     0              0.27727636     0.46474048     1.2756347    
     37600   0.80266909     3.470187       1.10367        2.366517       0.10306838     0.10306838     0              0.50694737     0.45625257     1.3002487    
     37700   0.92359473     3.1484957      1.2699428      1.878553       0.093674066    0.093674066    0              0.10491403     0.35129666     1.3286682    
     37800   1.0115853      3.4647445      1.3909298      2.0738146      0.1013483      0.1013483      0              0.38615897     0.31686245     1.2694449    
     37900   1.3758055      4.0932418      1.8917325      2.2015092      0.10723408     0.10723408     0              0.32642834     0.52132877     1.246518     
     38000   1.1356588      3.5001454      1.5615309      1.9386146      0.094470208    0.094470208    0              0.37003655     0.31493065     1.1591772    
     38100   1.0924253      3.5707303      1.5020848      2.0686454      0.080399184    0.080399184    0              0.55177312     0.19549302     1.2409801    
     38200   0.92574994     3.5301965      1.2729062      2.2572903      0.091718848    0.091718848    0              0.68293444     0.18213331     1.3005037    
     38300   0.85555117     3.2561884      1.1763829      2.0798055      0.10284393     0.10284393     0              0.29248217     0.35190026     1.3325792    
     38400   0.94912306     3.3699347      1.3050442      2.0648905      0.10338177     0.10338177     0              0.25541691     0.2849875      1.4211044    
     38500   0.96763565     3.9784267      1.330499       2.6479277      0.093704032    0.093704032    0              0.45880399     0.65954571     1.435874     
     38600   1.3016343      3.9477386      1.7897472      2.1579914      0.10243509     0.10243509     0              0.39678398     0.38584592     1.2729264    
     38700   0.55548243     3.3177054      0.76378834     2.5539171      0.11337765     0.11337765     0              0.71393146     0.51116666     1.2154413    
     38800   0.88692276     3.6156549      1.2195188      2.3961361      0.1126897      0.1126897      0              0.56469111     0.28701816     1.4317372    
     38900   1.1958152      4.1493943      1.644246       2.5051484      0.10472985     0.10472985     0              0.44658438     0.56163991     1.3921942    
     39000   1.2092369      4.051452       1.6627008      2.3887512      0.083369932    0.083369932    0              0.5056482      0.61903928     1.1806938    
     39100   1.1891866      4.108209       1.6351315      2.4730775      0.068850517    0.068850517    0              0.47762126     0.63731868     1.289287     
     39200   1.1855467      3.6880594      1.6301267      2.0579327      0.071054529    0.071054529    0              0.31542701     0.39922991     1.2722212    
     39300   1.6029221      4.4417071      2.2040179      2.2376892      0.079129693    0.079129693    0              0.48747229     0.42905794     1.2420293    
     39400   0.90975134     4.5416714      1.2509081      3.2907633      0.085969756    0.085969756    0              0.71257706     0.83778689     1.6544296    
     39500   0.85343789     3.4322909      1.1734771      2.2588138      0.089539091    0.089539091    0              0.69147841     0.18644971     1.2913466    
     39600   1.1482726      4.1569294      1.5788748      2.5780546      0.085203902    0.085203902    0              0.87860924     0.37523211     1.2390093    
     39700   0.75328258     3.7339016      1.0357636      2.698138       0.072629361    0.072629361    0              0.79498662     0.53602707     1.2944949    
     39800   1.3327071      4.1081296      1.8324723      2.2756572      0.077014718    0.077014718    0              0.43796682     0.40037739     1.3602983    
     39900   1.301169       4.1796757      1.7891074      2.3905683      0.095058875    0.095058875    0              0.27079199     0.71411334     1.3106041    
     40000   1.1260628      4.2481693      1.5483364      2.6998329      0.10809032     0.10809032     0              0.48149177     0.477405       1.6328458    
     40100   0.94222934     3.5209956      1.2955653      2.2254302      0.099006817    0.099006817    0              0.47757283     0.30961841     1.3392322    
     40200   1.4268356      3.8653606      1.9618989      1.9034617      0.088912958    0.088912958    0              0.39831852     0.13239402     1.2838362    
     40300   0.68437653     3.2232459      0.94101773     2.2822282      0.078636013    0.078636013    0              0.58083506     0.31094074     1.3118164    
     40400   1.1201832      3.6179655      1.5402519      2.0777137      0.073387161    0.073387161    0              0.50982716     0.21479869     1.2797007    
     40500   0.9741142      3.8391615      1.339407       2.4997545      0.081719278    0.081719278    0              0.64781254     0.56483553     1.2053871    
     40600   0.80291316     3.8672147      1.1040056      2.7632091      0.10284462     0.10284462     0              0.38961726     1.1331226      1.1376246    
     40700   1.3185693      3.8044677      1.8130328      1.9914349      0.1018272      0.1018272      0              0.25142785     0.35167361     1.2865062    
     40800   1.1660761      3.7445896      1.6033546      2.141235       0.083649358    0.083649358    0              0.37074923     0.38244815     1.3043883    
     40900   0.77383166     3.3912893      1.0640185      2.3272708      0.073361086    0.073361086    0              0.62428968     0.43239589     1.1972241    
     41000   1.5015264      4.0824564      2.0645988      2.0178576      0.081699928    0.081699928    0              0.42911392     0.24758114     1.2594626    
     41100   1.1878016      4.0653771      1.6332272      2.43215        0.085893332    0.085893332    0              0.80672604     0.42147002     1.1180606    
     41200   0.92795194     3.7475383      1.2759339      2.4716044      0.079707246    0.079707246    0              0.50696        0.50812587     1.3768113    
     41300   0.7776906      3.382532       1.0693246      2.3132075      0.061645181    0.061645181    0              0.7294852      0.28776204     1.2343151    
     41400   0.97804016     3.59668        1.3448052      2.2518748      0.056973195    0.056973195    0              0.55159622     0.34157928     1.3017261    
     41500   1.4781916      4.5118925      2.0325135      2.479379       0.065815775    0.065815775    0              0.4571996      0.56442945     1.3919342    
     41600   1.493539       4.3672868      2.0536161      2.3136707      0.081484656    0.081484656    0              0.41267034     0.26518645     1.5543293    
     41700   1.1777643      4.3379233      1.6194259      2.7184974      0.10744464     0.10744464     0              0.54078212     0.8722627      1.1980079    
     41800   0.96092055     3.860027       1.3212658      2.5387612      0.12525538     0.12525538     0              0.6834335      0.37421389     1.3558584    
     41900   0.86692942     3.4716604      1.192028       2.2796325      0.13291997     0.13291997     0              0.50565839     0.31893936     1.3221148    
     42000   1.2552147      4.0482118      1.7259202      2.3222915      0.15651926     0.15651926     0              0.49797831     0.50866787     1.1591261    
     42100   1.4650363      4.3469893      2.0144249      2.3325645      0.14935894     0.14935894     0              0.11657152     0.78949075     1.2771433    
     42200   0.97631263     3.481353       1.3424299      2.1389231      0.12465496     0.12465496     0              0.18572188     0.38813846     1.4404078    
     42300   0.81867119     3.5368482      1.1256729      2.4111753      0.12716929     0.12716929     0              0.27401199     0.55779971     1.4521943    
     42400   1.1819336      3.6800159      1.6251587      2.0548572      0.088112884    0.088112884    0              0.30170415     0.35531204     1.3097281    
     42500   1.3550777      3.9870105      1.8632319      2.1237786      0.07742552     0.07742552     0              0.36481666     0.36091301     1.3206234    
     42600   1.1309163      3.6718952      1.5550099      2.1168853      0.095067101    0.095067101    0              0.37891656     0.31662341     1.3262782    
     42700   1.0735151      3.7809388      1.4760832      2.3048556      0.11394596     0.11394596     0              0.5257492      0.35528126     1.3098792    
     42800   0.77242394     3.5105118      1.0620829      2.4484289      0.092895455    0.092895455    0              0.84498283     0.26559349     1.2449571    
     42900   0.83263773     3.0059882      1.1448769      1.8611114      0.085416865    0.085416865    0              0.45386485     0.16825887     1.1535708    
     43000   1.1476536      3.650199       1.5780236      2.0721754      0.1008266      0.1008266      0              0.48836481     0.24466423     1.2383197    
     43100   1.3210024      3.9229293      1.8163783      2.1065509      0.11263861     0.11263861     0              0.51736193     0.29134275     1.1852077    
     43200   1.1052012      3.5445888      1.5196516      2.0249372      0.11984884     0.11984884     0              0.32446959     0.30854974     1.2720691    
     43300   0.75449573     3.1887913      1.0374316      2.1513596      0.1023416      0.1023416      0              0.3418378      0.50754494     1.1996353    
     43400   1.1331354      3.8349412      1.5580612      2.27688        0.096760589    0.096760589    0              0.47696286     0.39718866     1.3059679    
     43500   1.8350203      4.7136742      2.5231529      2.1905213      0.10284078     0.10284078     0              0.45145102     0.37761651     1.258613     
     43600   1.3588807      4.1355834      1.868461       2.2671224      0.10417647     0.10417647     0              0.54440635     0.36302559     1.255514     
     43700   0.97366576     3.4841619      1.3387904      2.1453715      0.097809651    0.097809651    0              0.462232       0.29320386     1.292126     
     43800   1.1849225      3.5607219      1.6292684      1.9314535      0.08508869     0.08508869     0              0.24597737     0.34494929     1.2554381    
     43900   0.76812902     3.3942401      1.0561774      2.3380627      0.072872965    0.072872965    0              0.35969616     0.79649529     1.1089982    
     44000   0.75379935     3.1798062      1.0364741      2.1433321      0.069705132    0.069705132    0              0.62689567     0.34360918     1.1031221    
     44100   1.1035717      3.5340494      1.5174112      2.0166382      0.073040516    0.073040516    0              0.32151379     0.4238099      1.198274     
     44200   1.4294623      4.0741908      1.9655107      2.1086801      0.081190253    0.081190253    0              0.44726799     0.34502765     1.2351942    
     44300   0.91691743     3.3940958      1.2607615      2.1333343      0.089427044    0.089427044    0              0.5708309      0.19626029     1.2768161    
     44400   1.2336882      3.9121796      1.6963212      2.2158584      0.10687102     0.10687102     0              0.37580206     0.48509889     1.2480864    
     44500   1.8832787      4.5143102      2.5895082      1.924802       0.10849497     0.10849497     0              0.20441327     0.31406937     1.2978244    
     44600   1.5675241      4.8885954      2.1553457      2.7332498      0.12416677     0.12416677     0              0.49939571     0.64526689     1.4644204    
     44700   0.6829868      3.7008787      0.93910685     2.7617718      0.13629971     0.13629971     0              0.88379264     0.3605137      1.3811658    
     44800   1.2878951      4.1455785      1.7708558      2.3747227      0.14009419     0.14009419     0              0.75401208     0.24893848     1.231678     
     44900   1.4201656      4.24738        1.9527277      2.2946523      0.10810943     0.10810943     0              0.73483508     0.25772425     1.1939835    
     45000   1.4159522      4.8129438      1.9469343      2.8660095      0.086918662    0.086918662    0              0.96270081     0.58459065     1.2317994    
     45100   1.0483036      4.3974101      1.4414175      2.9559926      0.08365318     0.08365318     0              0.85509567     0.81285619     1.2043876    
     45200   1.1420438      3.5167248      1.5703102      1.9464146      0.08452236     0.08452236     0              0.22012584     0.48733872     1.1544277    
     45300   0.90653716     3.7267811      1.2464886      2.4802925      0.077544564    0.077544564    0              0.6362074      0.35110753     1.415433     
     45400   1.0430602      3.8010231      1.4342077      2.3668153      0.097119124    0.097119124    0              0.54470585     0.48688291     1.2381075    
     45500   0.70973977     3.2024912      0.97589218     2.226599       0.10729275     0.10729275     0              0.31757537     0.59971983     1.2020111    
     45600   0.84077779     3.5685571      1.1560695      2.4124876      0.10167256     0.10167256     0              0.42124908     0.62628197     1.263284     
     45700   0.7394522      2.85177        1.0167468      1.8350232      0.09932227     0.09932227     0              0.18096476     0.31547829     1.2392579    
     45800   0.80120925     3.8858413      1.1016627      2.7841786      0.12472922     0.12472922     0              0.61117734     0.93500582     1.1132662    
     45900   1.1661028      4.1447197      1.6033913      2.5413284      0.0963961      0.0963961      0              0.22637811     0.81621489     1.4023393    
     46000   0.91670046     3.8155046      1.2604631      2.5550414      0.098510257    0.098510257    0              0.52461549     0.68308255     1.2488331    
     46100   0.74151163     3.2346456      1.0195785      2.2150672      0.101542       0.101542       0              0.24484799     0.68053914     1.188138     
     46200   1.0961301      3.318623       1.5071789      1.811444       0.1031695      0.1031695      0              0.31049001     0.20539091     1.1923936    
     46300   0.73085932     2.9732397      1.0049316      1.9683081      0.090562293    0.090562293    0              0.55137056     0.24087076     1.0855045    
     46400   0.94169407     3.3549266      1.2948293      2.0600973      0.10203216     0.10203216     0              0.52781697     0.26595646     1.1642917    
     46500   1.3097088      3.6835046      1.8008496      1.882655       0.099538523    0.099538523    0              0.43267494     0.24518495     1.1052566    
     46600   0.73537508     3.2896128      1.0111407      2.278472       0.1005088      0.1005088      0              0.32865532     0.60282803     1.2464799    
     46700   0.63691935     3.1808917      0.87576411     2.3051276      0.078704628    0.078704628    0              0.68206616     0.34398509     1.2003717    
     46800   0.90496979     3.3703926      1.2443335      2.1260591      0.077341924    0.077341924    0              0.71003069     0.13219136     1.2064952    
     46900   1.068375       3.5765743      1.4690157      2.1075586      0.081137441    0.081137441    0              0.28742397     0.47727053     1.2617267    
     47000   1.5191972      3.8479737      2.0888962      1.7590775      0.089316335    0.089316335    0              0.30482101     0.1685309      1.1964092    
     47100   1.0182129      3.9908065      1.4000428      2.5907637      0.092623577    0.092623577    0              0.7655913      0.54758374     1.1849651    
     47200   0.75221696     3.233638       1.0342983      2.1993397      0.08634816     0.08634816     0              0.46101208     0.51904327     1.1329361    
     47300   0.7589147      3.1083686      1.0435077      2.0648609      0.078891622    0.078891622    0              0.61007803     0.21794068     1.1579505    
     47400   1.3898624      3.6952894      1.9110609      1.7842286      0.079635404    0.079635404    0              0.23967592     0.2203654      1.2445518    
     47500   1.3818063      4.1133081      1.8999837      2.2133244      0.078188894    0.078188894    0              0.41331959     0.33508283     1.3867331    
     47600   1.4168687      4.1357541      1.9481945      2.1875596      0.081147011    0.081147011    0              0.59079513     0.3352674      1.1803501    
     47700   1.2172871      4.0012478      1.6737698      2.327478       0.088178399    0.088178399    0              0.17289838     0.8839009      1.1825003    
     47800   0.93602273     4.1310571      1.2870313      2.8440259      0.081036676    0.081036676    0              0.49961607     0.95789712     1.305476     
     47900   1.3141673      4.0304665      1.8069801      2.2234864      0.074026412    0.074026412    0              0.68916852     0.20298187     1.2573096    
     48000   0.80400199     3.321598       1.1055027      2.2160953      0.073715944    0.073715944    0              0.6897979      0.27524725     1.1773342    
     48100   0.98119956     3.5072968      1.3491494      2.1581474      0.084001892    0.084001892    0              0.61360918     0.19251746     1.2680189    
     48200   0.94756486     3.5575613      1.3029017      2.2546596      0.089810396    0.089810396    0              0.48570328     0.53108977     1.1480562    
     48300   1.132551       3.5362342      1.5572576      1.9789766      0.09435943     0.09435943     0              0.36800629     0.38594788     1.130663     
     48400   1.2008799      3.5886008      1.6512098      1.937391       0.086941627    0.086941627    0              0.30157469     0.30511131     1.2437633    
     48500   1.1720624      3.7744664      1.6115858      2.1628806      0.082179134    0.082179134    0              0.55418029     0.2673619      1.2591593    
     48600   1.1111499      3.8707024      1.5278311      2.3428713      0.085457956    0.085457956    0              0.53357827     0.37755206     1.346283     
     48700   1.1532013      3.6315357      1.5856517      2.045884       0.088462185    0.088462185    0              0.36654953     0.27380835     1.3170639    
     48800   1.0944791      3.7634676      1.5049088      2.2585588      0.087567757    0.087567757    0              0.57791979     0.35785562     1.2352156    
     48900   1.1771168      3.8171015      1.6185356      2.1985659      0.0886405      0.0886405      0              0.44755378     0.1340302      1.5283414    
     49000   1.0185854      3.5084438      1.4005549      2.1078889      0.091962786    0.091962786    0              0.41197552     0.26851896     1.3354316    
     49100   1.3059577      3.9359888      1.7956918      2.140297       0.082016338    0.082016338    0              0.29811602     0.41118645     1.3489782    
     49200   0.97178552     3.5402898      1.3362051      2.2040847      0.070699471    0.070699471    0              0.65683615     0.19168531     1.2848638    
     49300   0.86705275     3.1403399      1.1921975      1.9481424      0.087399305    0.087399305    0              0.31194788     0.36897898     1.1798162    
     49400   1.1082175      3.5545161      1.5237991      2.030717       0.11361374     0.11361374     0              0.47593941     0.18774443     1.2534194    
     49500   0.72722173     2.8716612      0.99992988     1.8717314      0.11183386     0.11183386     0              0.27022002     0.34459377     1.1450837    
     49600   1.1254827      3.5873625      1.5475387      2.0398238      0.084143488    0.084143488    0              0.27652642     0.41119115     1.2679627    
     49700   1.6115969      5.1403136      2.2159458      2.9243678      0.083260883    0.083260883    0              0.63518495     0.49873574     1.7071862    
     49800   1.6159301      4.2192135      2.2219038      1.9973097      0.094482265    0.094482265    0              0.20713718     0.42802903     1.2676612    
     49900   1.2003935      4.0267833      1.6505411      2.3762422      0.097037812    0.097037812    0              0.49470564     0.513518       1.2709807    
     50000   1.1954828      4.5105004      1.6437889      2.8667115      0.10170968     0.10170968     0              0.77513015     0.62096927     1.3689024    
     50004   1.1903471      4.4990465      1.6367273      2.8623192      0.10244382     0.10244382     0              0.8111259      0.55715867     1.3915908    
Loop time of 0.262893 on 8 procs for 50000 steps with 12 atoms

Performance: 82162688.415 tau/day, 190191.408 timesteps/s, 2.282 Matom-step/s
782.9% CPU use with 1 MPI tasks x 8 OpenMP threads

MPI task timing breakdown:
Section |  min time  |  avg time  |  max time  |%varavg| %total
---------------------------------------------------------------
Pair    | 0.042184   | 0.042184   | 0.042184   |   0.0 | 16.05
Bond    | 0.075725   | 0.075725   | 0.075725   |   0.0 | 28.80
Neigh   | 0.037911   | 0.037911   | 0.037911   |   0.0 | 14.42
Comm    | 0.0073559  | 0.0073559  | 0.0073559  |   0.0 |  2.80
Output  | 0.0052453  | 0.0052453  | 0.0052453  |   0.0 |  2.00
Modify  | 0.042472   | 0.042472   | 0.042472   |   0.0 | 16.16
Other   |            | 0.052      |            |       | 19.78

Nlocal:             12 ave          12 max          12 min
Histogram: 1 0 0 0 0 0 0 0 0 0
Nghost:              6 ave           6 max           6 min
Histogram: 1 0 0 0 0 0 0 0 0 0
Neighs:              0 ave           0 max           0 min
Histogram: 1 0 0 0 0 0 0 0 0 0

Total # of neighbors = 0
Ave neighs/atom = 0
Ave special neighs/atom = 5
Neighbor list builds = 4345
Dangerous builds = 0
System init for write_restart ...
Generated 0 of 0 mixed pair_coeff terms from geometric mixing rule
System init for write_data ...
Generated 0 of 0 mixed pair_coeff terms from geometric mixing rule
Total wall time: 0:00:00
