LAMMPS data file via write_data, version 29 Aug 2024, timestep = 50512, units = lj

24 atoms
1 atom types
23 bonds
1 bond types
22 angles
1 angle types
21 dihedrals
1 dihedral types

-13.5 36.5 xlo xhi
-25 25 ylo yhi
-25 25 zlo zhi

Masses

1 1

Bond Coeffs # harmonic

1 30 1.4

Angle Coeffs # harmonic

1 10 140

Dihedral Coeffs # multi/harmonic

1 1 1 1 1 1

Atoms # full

23 1 1 -2 16.1722678963042 -15.297141281701423 0.8153695548048221 0 0 0
24 1 1 -2 16.994537728859203 -14.920268873886238 -0.1829210394141872 0 0 0
22 1 1 -2 16.175413711848343 -14.899253831337772 2.095104067942719 0 0 0
7 1 1 -2 17.444570646415563 -1.5413431491853358 2.518585005740937 0 0 0
6 1 1 -2 17.86690336526143 -0.3224405680984095 2.439720233018284 0 0 0
20 1 1 -2 15.254382887141585 -12.749109424885082 3.4313272405416666 0 0 0
21 1 1 -2 15.129613343419598 -13.969035238706548 2.6138813123058107 0 0 0
8 1 1 -2 17.270028819835357 -2.418092970934248 3.756663746404702 0 0 0
9 1 1 -2 16.764600530535013 -3.6755401038393005 4.145485068073741 0 0 0
19 1 1 -2 14.854530213402246 -12.604461203013667 4.728113354206309 0 0 0
10 1 1 -2 17.064903053151106 -4.701957867575496 4.598691710040639 0 0 0
18 1 1 -2 15.101902969699415 -11.864236395005117 5.880206527815195 0 0 0
17 1 1 -2 14.84791699218321 -11.32942226891458 7.3096741755101435 0 0 0
13 1 1 -2 16.828163968111685 -6.864836796025914 7.234886658458912 0 0 0
11 1 1 -2 17.685828005688823 -4.85338054138082 5.531944283563847 0 0 0
12 1 1 -2 17.05738796059095 -5.662346170824399 6.4749131155254664 0 0 0
14 1 1 -2 16.40961808080435 -7.897692864264452 8.29835237973547 0 0 0
16 1 1 -2 15.345554914241776 -10.33423156281003 8.219409901779567 0 0 0
15 1 1 -2 15.533634420192229 -8.925229127789002 8.57269692769333 0 0 0
3 1 1 -2 21.113648449988172 1.5331376616015269 0.6993420401483087 0 0 0
2 1 1 -2 22.21402557348599 2.2075587310331035 1.1119955858578465 0 0 0
1 1 1 -2 23.017341492676564 3.1012092824950312 0.4151233703356423 0 0 0
4 1 1 -2 20.434794317069752 0.39143430781497635 1.1005587700243455 0 0 0
5 1 1 -2 19.374440967660085 0.0357856777892937 2.027907804233048 0 0 0

Velocities

23 0.038401708630179866 -1.1309234764607103 0.26336515132473476
24 -0.3763997140247092 -0.37490481367539824 -1.1045078508271502
22 1.5719889395570414 -0.051818223265894345 0.6436866618041398
7 2.594169842334631 0.06609069374013513 0.1562932640146209
6 0.40796975960919607 -1.140227897063101 -2.4381033486633537
20 -1.1087044707413682 -1.4402769568547586 0.2192217214062246
21 0.477655768454327 0.3805725783246231 0.8072803188933283
8 0.8803988551254209 0.8391211808937388 0.9287756900816965
9 1.6882577403950683 -0.19850164264862713 -0.8890586084761424
19 -1.3846950239189642 -0.5103741159827779 -0.6330608817298308
10 -0.2956454501791483 -0.5230269640087074 0.6132787753641468
18 1.2371378947984777 0.820372881641396 -2.0918874991477487
17 0.31208090185226334 -0.7156293725370666 0.041997256544142304
13 1.0772429596335205 -0.0541808082485546 0.7800839547424809
11 -0.7955369182876172 1.9745256546622303 1.6239467903831435
12 -1.4559196505857908 -1.8655303407331634 -0.9700404496499421
14 -1.0350173703416055 0.4921495650919275 1.3320776657666549
16 1.7015124899775513 1.670676533774515 -0.4051319254974202
15 0.6567566296701678 -0.703215468822423 0.1021319992690485
3 -1.6933248308668067 -1.3173394748521987 -0.44127466632111795
2 -0.9882740181551243 0.8020179574983415 0.17000235999736307
1 -1.4693486055702325 -0.06668713679303295 0.12925342256307362
4 1.5842356241615596 1.0358797870116654 0.8938158097791169
5 -0.7095855072769315 0.3694696154429023 -0.02981926250021656

Bonds

1 1 23 24
2 1 22 23
3 1 7 8
4 1 6 7
5 1 20 21
6 1 21 22
7 1 8 9
8 1 9 10
9 1 19 20
10 1 10 11
11 1 18 19
12 1 17 18
13 1 13 14
14 1 11 12
15 1 12 13
16 1 14 15
17 1 16 17
18 1 15 16
19 1 3 4
20 1 2 3
21 1 1 2
22 1 4 5
23 1 5 6

Angles

1 1 22 23 24
2 1 21 22 23
3 1 6 7 8
4 1 5 6 7
5 1 19 20 21
6 1 20 21 22
7 1 7 8 9
8 1 8 9 10
9 1 18 19 20
10 1 9 10 11
11 1 17 18 19
12 1 16 17 18
13 1 12 13 14
14 1 10 11 12
15 1 11 12 13
16 1 13 14 15
17 1 15 16 17
18 1 14 15 16
19 1 2 3 4
20 1 1 2 3
21 1 3 4 5
22 1 4 5 6

Dihedrals

1 1 21 22 23 24
2 1 6 7 8 9
3 1 5 6 7 8
4 1 19 20 21 22
5 1 20 21 22 23
6 1 7 8 9 10
7 1 8 9 10 11
8 1 18 19 20 21
9 1 9 10 11 12
10 1 17 18 19 20
11 1 16 17 18 19
12 1 12 13 14 15
13 1 10 11 12 13
14 1 11 12 13 14
15 1 13 14 15 16
16 1 15 16 17 18
17 1 14 15 16 17
18 1 2 3 4 5
19 1 1 2 3 4
20 1 3 4 5 6
21 1 4 5 6 7
