ITEM: TIMESTEP
0
ITEM: NUMBER OF ATOMS
24
ITEM: BOX BOUNDS pp pp pp
-1.3500000000000000e+01 3.6500000000000000e+01
-2.5000000000000000e+01 2.5000000000000000e+01
-2.5000000000000000e+01 2.5000000000000000e+01
ITEM: ATOMS id type xs ys zs
1 1 0.480911 0.45756 0.245736
3 1 0.464571 0.463889 0.278706
2 1 0.477569 0.465361 0.262846
5 1 0.472256 0.464192 0.316465
4 1 0.468722 0.473057 0.294532
6 1 0.482613 0.458467 0.328514
7 1 0.482238 0.454244 0.343967
8 1 0.489301 0.436415 0.354184
10 1 0.496405 0.420207 0.38864
9 1 0.485031 0.427996 0.375123
24 1 0.548166 0.227692 0.421662
23 1 0.552152 0.249738 0.428348
22 1 0.559088 0.266671 0.427758
21 1 0.55434 0.280873 0.431141
20 1 0.555696 0.298511 0.428642
19 1 0.548771 0.313377 0.421201
18 1 0.547797 0.328856 0.438851
13 1 0.478523 0.368016 0.421917
14 1 0.485345 0.350751 0.423915
12 1 0.48406 0.382516 0.408454
11 1 0.490132 0.404698 0.404101
17 1 0.528383 0.334701 0.448541
16 1 0.519361 0.34537 0.444392
15 1 0.498259 0.350513 0.440502
ITEM: TIMESTEP
512
ITEM: NUMBER OF ATOMS
24
ITEM: BOX BOUNDS pp pp pp
-1.3500000000000000e+01 3.6500000000000000e+01
-2.5000000000000000e+01 2.5000000000000000e+01
-2.5000000000000000e+01 2.5000000000000000e+01
ITEM: ATOMS id type xs ys zs
1 1 0.469851 0.498488 0.18792
9 1 0.460095 0.461094 0.381132
7 1 0.472372 0.486185 0.336533
8 1 0.473741 0.467846 0.357641
5 1 0.456856 0.496759 0.287369
10 1 0.448189 0.438877 0.393329
6 1 0.472079 0.486587 0.30854
15 1 0.509925 0.352985 0.452552
23 1 0.591588 0.177011 0.465115
22 1 0.597696 0.200875 0.451809
21 1 0.592209 0.228287 0.453343
20 1 0.582808 0.249205 0.437283
19 1 0.563155 0.269149 0.437383
18 1 0.560659 0.296827 0.433994
13 1 0.46784 0.383517 0.444394
14 1 0.484192 0.360798 0.444759
12 1 0.452149 0.398291 0.426522
11 1 0.448997 0.424562 0.417371
17 1 0.549897 0.31918 0.446994
16 1 0.532709 0.340684 0.441893
24 1 0.581661 0.151386 0.459741
4 1 0.460014 0.51185 0.264001
2 1 0.466887 0.512722 0.211849
3 1 0.454118 0.510506 0.236671
ITEM: TIMESTEP
1000
ITEM: NUMBER OF ATOMS
24
ITEM: BOX BOUNDS pp pp pp
-1.3500000000000000e+01 3.6500000000000000e+01
-2.5000000000000000e+01 2.5000000000000000e+01
-2.5000000000000000e+01 2.5000000000000000e+01
ITEM: ATOMS id type xs ys zs
4 1 0.469347 0.48109 0.272739
6 1 0.463579 0.473287 0.315515
7 1 0.465239 0.469023 0.343322
8 1 0.459651 0.47792 0.373118
9 1 0.447552 0.461349 0.394448
3 1 0.465851 0.496446 0.247483
5 1 0.481092 0.478415 0.293115
2 1 0.47168 0.49397 0.22267
1 1 0.453047 0.481551 0.208602
19 1 0.553631 0.24855 0.427493
20 1 0.566688 0.232865 0.407099
18 1 0.54521 0.276153 0.436056
12 1 0.458663 0.399605 0.439973
11 1 0.44917 0.422119 0.419156
24 1 0.583475 0.146284 0.452035
23 1 0.596307 0.16798 0.438232
22 1 0.588716 0.187895 0.415348
21 1 0.585767 0.215325 0.407157
16 1 0.521541 0.317663 0.468924
17 1 0.526901 0.290852 0.450212
13 1 0.466393 0.372117 0.444534
14 1 0.494714 0.358838 0.450495
15 1 0.500722 0.339756 0.474142
10 1 0.458856 0.449805 0.411969
ITEM: TIMESTEP
2000
ITEM: NUMBER OF ATOMS
24
ITEM: BOX BOUNDS pp pp pp
-1.3500000000000000e+01 3.6500000000000000e+01
-2.5000000000000000e+01 2.5000000000000000e+01
-2.5000000000000000e+01 2.5000000000000000e+01
ITEM: ATOMS id type xs ys zs
8 1 0.486553 0.4209 0.347087
9 1 0.488482 0.431922 0.372492
4 1 0.477141 0.456001 0.250107
3 1 0.471574 0.475437 0.228387
6 1 0.475701 0.419988 0.291875
5 1 0.468688 0.438236 0.271077
7 1 0.484619 0.424136 0.318772
10 1 0.472828 0.437809 0.39528
2 1 0.489667 0.499703 0.228317
23 1 0.559617 0.172728 0.450349
22 1 0.562019 0.198553 0.440762
21 1 0.563762 0.227096 0.449711
19 1 0.538488 0.264946 0.457111
20 1 0.553766 0.249009 0.44751
18 1 0.546899 0.286288 0.469505
11 1 0.489411 0.42838 0.417584
12 1 0.49627 0.420803 0.449943
24 1 0.578174 0.150969 0.459573
17 1 0.536152 0.312424 0.474308
16 1 0.536815 0.334759 0.489973
15 1 0.53907 0.365828 0.490677
13 1 0.515539 0.413607 0.466372
14 1 0.525712 0.392559 0.488126
1 1 0.512039 0.504128 0.218509
ITEM: TIMESTEP
3000
ITEM: NUMBER OF ATOMS
24
ITEM: BOX BOUNDS pp pp pp
-1.3500000000000000e+01 3.6500000000000000e+01
-2.5000000000000000e+01 2.5000000000000000e+01
-2.5000000000000000e+01 2.5000000000000000e+01
ITEM: ATOMS id type xs ys zs
9 1 0.476003 0.465503 0.373801
7 1 0.486409 0.48071 0.328074
8 1 0.479142 0.463668 0.348209
10 1 0.484567 0.447302 0.394767
6 1 0.469288 0.491348 0.306688
22 1 0.514435 0.203224 0.476525
11 1 0.505725 0.439678 0.412526
24 1 0.525672 0.14585 0.490772
23 1 0.521065 0.170786 0.476304
21 1 0.531788 0.228359 0.479819
19 1 0.541475 0.280571 0.490059
20 1 0.530386 0.254233 0.493691
18 1 0.549983 0.309948 0.504877
17 1 0.553466 0.330294 0.491965
12 1 0.51374 0.41655 0.424273
13 1 0.538842 0.40751 0.434372
16 1 0.558815 0.359841 0.494865
15 1 0.548285 0.381724 0.48364
14 1 0.554131 0.405072 0.46016
1 1 0.487222 0.554453 0.193795
4 1 0.474831 0.515106 0.261978
2 1 0.48102 0.548047 0.224892
3 1 0.463689 0.5332 0.241051
5 1 0.47252 0.512969 0.291077
ITEM: TIMESTEP
4000
ITEM: NUMBER OF ATOMS
24
ITEM: BOX BOUNDS pp pp pp
-1.3500000000000000e+01 3.6500000000000000e+01
-2.5000000000000000e+01 2.5000000000000000e+01
-2.5000000000000000e+01 2.5000000000000000e+01
ITEM: ATOMS id type xs ys zs
9 1 0.518752 0.46366 0.361146
8 1 0.509901 0.483347 0.342197
10 1 0.519454 0.471082 0.391239
7 1 0.490508 0.479225 0.324177
12 1 0.514908 0.441825 0.430448
13 1 0.512704 0.413627 0.437336
15 1 0.550576 0.380463 0.458019
23 1 0.529854 0.186859 0.469425
22 1 0.530564 0.214235 0.485798
14 1 0.535739 0.403069 0.449972
24 1 0.513007 0.171829 0.450836
21 1 0.52586 0.24152 0.481806
20 1 0.539928 0.261785 0.471962
19 1 0.543869 0.281241 0.486365
18 1 0.548998 0.30611 0.469012
17 1 0.549426 0.336169 0.475121
16 1 0.556907 0.359135 0.478677
11 1 0.507996 0.454411 0.408902
2 1 0.496898 0.584996 0.235024
4 1 0.480804 0.533697 0.272408
3 1 0.497277 0.558964 0.256913
5 1 0.468164 0.52539 0.292749
1 1 0.498042 0.608883 0.227204
6 1 0.476789 0.507004 0.315832
ITEM: TIMESTEP
5000
ITEM: NUMBER OF ATOMS
24
ITEM: BOX BOUNDS pp pp pp
-1.3500000000000000e+01 3.6500000000000000e+01
-2.5000000000000000e+01 2.5000000000000000e+01
-2.5000000000000000e+01 2.5000000000000000e+01
ITEM: ATOMS id type xs ys zs
11 1 0.541185 0.428041 0.398614
8 1 0.527699 0.479173 0.325675
9 1 0.526 0.456382 0.344114
10 1 0.534561 0.445609 0.370858
13 1 0.577565 0.410559 0.432415
12 1 0.560718 0.426551 0.416396
19 1 0.559658 0.292806 0.508473
23 1 0.548291 0.20026 0.483497
24 1 0.542194 0.177649 0.489825
20 1 0.552971 0.267829 0.504722
18 1 0.547237 0.31803 0.502473
17 1 0.557288 0.343605 0.497887
15 1 0.577751 0.379224 0.4616
16 1 0.577681 0.361009 0.48789
14 1 0.583851 0.402103 0.449962
22 1 0.564626 0.212536 0.492546
21 1 0.562833 0.24015 0.508992
2 1 0.48614 0.575654 0.228728
1 1 0.464821 0.57648 0.211292
4 1 0.481857 0.545227 0.268631
3 1 0.483346 0.566145 0.2508
5 1 0.503955 0.541489 0.29395
6 1 0.515699 0.520127 0.304296
7 1 0.512126 0.50411 0.327525
ITEM: TIMESTEP
6000
ITEM: NUMBER OF ATOMS
24
ITEM: BOX BOUNDS pp pp pp
-1.3500000000000000e+01 3.6500000000000000e+01
-2.5000000000000000e+01 2.5000000000000000e+01
-2.5000000000000000e+01 2.5000000000000000e+01
ITEM: ATOMS id type xs ys zs
9 1 0.515765 0.485206 0.355262
11 1 0.517231 0.454158 0.395768
10 1 0.524852 0.47443 0.379074
13 1 0.534341 0.409408 0.416339
16 1 0.564715 0.359028 0.464397
15 1 0.563857 0.376238 0.43709
14 1 0.551335 0.399995 0.43352
24 1 0.54662 0.17163 0.533114
23 1 0.545805 0.191954 0.513279
22 1 0.556842 0.21311 0.496076
20 1 0.564425 0.264132 0.489504
21 1 0.55378 0.241875 0.483764
19 1 0.551849 0.289027 0.487166
18 1 0.551698 0.314259 0.487166
17 1 0.55979 0.332158 0.470964
12 1 0.525117 0.43044 0.413824
7 1 0.498238 0.514428 0.32006
5 1 0.479631 0.522208 0.268529
4 1 0.479101 0.53149 0.243582
3 1 0.473828 0.554235 0.230898
6 1 0.499522 0.520914 0.29288
8 1 0.513443 0.50622 0.337723
2 1 0.467435 0.563322 0.207833
1 1 0.452228 0.579444 0.214112
ITEM: TIMESTEP
7000
ITEM: NUMBER OF ATOMS
24
ITEM: BOX BOUNDS pp pp pp
-1.3500000000000000e+01 3.6500000000000000e+01
-2.5000000000000000e+01 2.5000000000000000e+01
-2.5000000000000000e+01 2.5000000000000000e+01
ITEM: ATOMS id type xs ys zs
9 1 0.515768 0.497703 0.394351
11 1 0.548329 0.454082 0.395702
15 1 0.58672 0.368854 0.452264
13 1 0.569299 0.414279 0.422462
14 1 0.569651 0.388145 0.44179
24 1 0.515346 0.195178 0.505456
17 1 0.574878 0.315669 0.456826
16 1 0.577598 0.3482 0.462584
23 1 0.54406 0.195029 0.510967
22 1 0.569344 0.19846 0.499423
20 1 0.593784 0.247431 0.481256
21 1 0.582614 0.220005 0.480714
19 1 0.596251 0.268377 0.463541
18 1 0.583567 0.292475 0.464552
12 1 0.550965 0.42636 0.410069
10 1 0.540535 0.478683 0.40151
3 1 0.467109 0.559739 0.266986
2 1 0.458244 0.555873 0.238066
1 1 0.469834 0.562823 0.212186
5 1 0.50436 0.540782 0.299838
4 1 0.492461 0.557982 0.279738
6 1 0.510216 0.541381 0.328377
7 1 0.506143 0.531278 0.359289
8 1 0.518257 0.51915 0.375823
ITEM: TIMESTEP
8000
ITEM: NUMBER OF ATOMS
24
ITEM: BOX BOUNDS pp pp pp
-1.3500000000000000e+01 3.6500000000000000e+01
-2.5000000000000000e+01 2.5000000000000000e+01
-2.5000000000000000e+01 2.5000000000000000e+01
ITEM: ATOMS id type xs ys zs
11 1 0.531569 0.471784 0.408486
12 1 0.549769 0.448444 0.413495
13 1 0.544622 0.422578 0.431178
19 1 0.614262 0.292083 0.458704
18 1 0.604008 0.3169 0.451323
17 1 0.585042 0.324533 0.434898
15 1 0.556718 0.36875 0.431725
16 1 0.573292 0.347101 0.419705
14 1 0.558075 0.395445 0.432953
24 1 0.546736 0.204071 0.523159
23 1 0.575086 0.210863 0.518188
22 1 0.588923 0.221209 0.494802
21 1 0.603425 0.245616 0.488598
20 1 0.601732 0.265063 0.474636
2 1 0.464539 0.509481 0.252652
8 1 0.532573 0.542656 0.37173
3 1 0.478588 0.525473 0.26614
4 1 0.475082 0.53699 0.292604
5 1 0.498359 0.544987 0.298572
6 1 0.511866 0.536515 0.323932
7 1 0.516371 0.549855 0.349475
9 1 0.523213 0.528115 0.395857
1 1 0.4451 0.51208 0.23155
10 1 0.531032 0.500344 0.411221
ITEM: TIMESTEP
9000
ITEM: NUMBER OF ATOMS
24
ITEM: BOX BOUNDS pp pp pp
-1.3500000000000000e+01 3.6500000000000000e+01
-2.5000000000000000e+01 2.5000000000000000e+01
-2.5000000000000000e+01 2.5000000000000000e+01
ITEM: ATOMS id type xs ys zs
16 1 0.622435 0.358738 0.443619
17 1 0.637775 0.334267 0.430048
15 1 0.590825 0.365317 0.433452
10 1 0.546224 0.485718 0.408344
14 1 0.576978 0.384865 0.421004
12 1 0.572132 0.429334 0.401513
24 1 0.562627 0.197727 0.50819
20 1 0.618959 0.275236 0.483807
19 1 0.628157 0.302611 0.470225
18 1 0.645013 0.315874 0.450506
23 1 0.553372 0.222653 0.504956
22 1 0.572213 0.24261 0.505313
21 1 0.591102 0.259475 0.487609
11 1 0.559836 0.459754 0.411873
13 1 0.567593 0.400995 0.40304
1 1 0.445694 0.538221 0.231514
2 1 0.45063 0.547191 0.260196
3 1 0.471509 0.542414 0.273649
4 1 0.47808 0.531309 0.301735
5 1 0.502544 0.542034 0.317425
6 1 0.524139 0.535588 0.325215
7 1 0.533461 0.532488 0.352776
8 1 0.548785 0.511182 0.363102
9 1 0.558591 0.500923 0.386551
ITEM: TIMESTEP
10000
ITEM: NUMBER OF ATOMS
24
ITEM: BOX BOUNDS pp pp pp
-1.3500000000000000e+01 3.6500000000000000e+01
-2.5000000000000000e+01 2.5000000000000000e+01
-2.5000000000000000e+01 2.5000000000000000e+01
ITEM: ATOMS id type xs ys zs
10 1 0.575033 0.459786 0.385257
7 1 0.517103 0.488872 0.36031
9 1 0.566594 0.483165 0.368632
8 1 0.539663 0.49213 0.366947
12 1 0.589315 0.425877 0.421802
11 1 0.580842 0.451844 0.410298
18 1 0.591296 0.300979 0.475512
17 1 0.601768 0.326209 0.474043
15 1 0.597548 0.374993 0.477535
16 1 0.594199 0.349944 0.466302
13 1 0.599477 0.420213 0.449762
14 1 0.608349 0.39712 0.462203
24 1 0.526388 0.181798 0.509904
23 1 0.533019 0.205672 0.508759
22 1 0.55462 0.216466 0.495259
21 1 0.566153 0.243327 0.501107
20 1 0.5872 0.254913 0.49706
19 1 0.594045 0.281063 0.490732
1 1 0.421902 0.522853 0.256701
2 1 0.435063 0.536998 0.276715
3 1 0.465468 0.541089 0.289644
4 1 0.484052 0.541468 0.313257
5 1 0.493085 0.518638 0.331405
6 1 0.496767 0.507162 0.358952
ITEM: TIMESTEP
11000
ITEM: NUMBER OF ATOMS
24
ITEM: BOX BOUNDS pp pp pp
-1.3500000000000000e+01 3.6500000000000000e+01
-2.5000000000000000e+01 2.5000000000000000e+01
-2.5000000000000000e+01 2.5000000000000000e+01
ITEM: ATOMS id type xs ys zs
1 1 0.446154 0.476358 0.27511
8 1 0.551521 0.496065 0.381427
2 1 0.443956 0.49293 0.294232
12 1 0.615118 0.411263 0.425609
19 1 0.579061 0.276125 0.436903
18 1 0.563791 0.306291 0.436994
17 1 0.572994 0.319329 0.460496
15 1 0.609034 0.35299 0.453439
16 1 0.586068 0.342539 0.462693
13 1 0.627659 0.393557 0.438805
14 1 0.622454 0.373551 0.455241
24 1 0.527488 0.183821 0.497997
23 1 0.5519 0.189102 0.480668
22 1 0.558921 0.212028 0.465152
21 1 0.579123 0.226227 0.455765
20 1 0.574628 0.256646 0.453368
10 1 0.577624 0.456998 0.403609
11 1 0.601016 0.44171 0.4174
9 1 0.563344 0.483047 0.402868
7 1 0.523621 0.502287 0.374236
6 1 0.506423 0.518655 0.362011
3 1 0.463249 0.510548 0.309499
4 1 0.468072 0.519024 0.335664
5 1 0.479436 0.515183 0.357305
ITEM: TIMESTEP
12000
ITEM: NUMBER OF ATOMS
24
ITEM: BOX BOUNDS pp pp pp
-1.3500000000000000e+01 3.6500000000000000e+01
-2.5000000000000000e+01 2.5000000000000000e+01
-2.5000000000000000e+01 2.5000000000000000e+01
ITEM: ATOMS id type xs ys zs
8 1 0.542401 0.489804 0.390319
18 1 0.599692 0.292657 0.48131
19 1 0.601464 0.268496 0.471084
12 1 0.59452 0.417772 0.428134
13 1 0.607678 0.401811 0.441388
24 1 0.581929 0.168195 0.433133
11 1 0.577808 0.436712 0.419567
23 1 0.567419 0.188468 0.441211
22 1 0.574924 0.198214 0.46338
21 1 0.59527 0.22065 0.470549
20 1 0.592207 0.244852 0.484826
17 1 0.598895 0.31637 0.468362
16 1 0.617783 0.338681 0.459931
15 1 0.617467 0.365259 0.467241
14 1 0.621526 0.39262 0.462652
10 1 0.579069 0.457529 0.404216
9 1 0.570828 0.486572 0.401604
6 1 0.503562 0.504223 0.364425
2 1 0.474638 0.537079 0.275568
1 1 0.470885 0.540238 0.248738
4 1 0.484662 0.5222 0.328617
5 1 0.488333 0.520231 0.350337
3 1 0.470783 0.534904 0.306233
7 1 0.519142 0.502791 0.381665
ITEM: TIMESTEP
13000
ITEM: NUMBER OF ATOMS
24
ITEM: BOX BOUNDS pp pp pp
-1.3500000000000000e+01 3.6500000000000000e+01
-2.5000000000000000e+01 2.5000000000000000e+01
-2.5000000000000000e+01 2.5000000000000000e+01
ITEM: ATOMS id type xs ys zs
8 1 0.551131 0.472339 0.367747
7 1 0.532784 0.484933 0.351546
6 1 0.538176 0.49296 0.324113
9 1 0.557585 0.466912 0.395373
24 1 0.550415 0.173415 0.477617
12 1 0.590172 0.412296 0.434019
11 1 0.578847 0.433453 0.41783
10 1 0.580225 0.455742 0.413498
18 1 0.621703 0.297548 0.490155
23 1 0.560182 0.189705 0.492312
22 1 0.561442 0.218391 0.494712
21 1 0.570655 0.240816 0.48108
19 1 0.598058 0.289617 0.483841
17 1 0.635129 0.324305 0.48871
16 1 0.651947 0.331828 0.467355
15 1 0.639562 0.346955 0.440849
13 1 0.602555 0.38755 0.423933
14 1 0.628602 0.374237 0.433218
20 1 0.587758 0.265732 0.49021
2 1 0.475247 0.578801 0.2928
1 1 0.475635 0.605274 0.285358
3 1 0.494332 0.55876 0.302848
4 1 0.51405 0.533825 0.298076
5 1 0.519583 0.503914 0.303135
ITEM: TIMESTEP
14000
ITEM: NUMBER OF ATOMS
24
ITEM: BOX BOUNDS pp pp pp
-1.3500000000000000e+01 3.6500000000000000e+01
-2.5000000000000000e+01 2.5000000000000000e+01
-2.5000000000000000e+01 2.5000000000000000e+01
ITEM: ATOMS id type xs ys zs
7 1 0.563319 0.46477 0.31788
9 1 0.60612 0.427878 0.330736
8 1 0.588264 0.450336 0.321634
10 1 0.610553 0.422409 0.356628
11 1 0.632952 0.418029 0.37439
6 1 0.558091 0.491626 0.312732
12 1 0.637854 0.431564 0.39744
14 1 0.618182 0.399619 0.439369
19 1 0.625829 0.30274 0.50782
13 1 0.638496 0.416508 0.424381
18 1 0.624471 0.329727 0.506082
17 1 0.632168 0.345186 0.484603
24 1 0.539788 0.222365 0.482001
16 1 0.621552 0.362387 0.472287
15 1 0.622711 0.372893 0.444461
23 1 0.555598 0.241838 0.480249
22 1 0.574405 0.257013 0.499493
21 1 0.597224 0.261899 0.506795
20 1 0.615518 0.278579 0.524317
4 1 0.515187 0.52395 0.295871
5 1 0.537531 0.50692 0.298257
3 1 0.50835 0.552816 0.297965
2 1 0.488858 0.579162 0.293504
1 1 0.479565 0.59455 0.320522
ITEM: TIMESTEP
15000
ITEM: NUMBER OF ATOMS
24
ITEM: BOX BOUNDS pp pp pp
-1.3500000000000000e+01 3.6500000000000000e+01
-2.5000000000000000e+01 2.5000000000000000e+01
-2.5000000000000000e+01 2.5000000000000000e+01
ITEM: ATOMS id type xs ys zs
7 1 0.559532 0.465497 0.331032
6 1 0.549348 0.490796 0.322886
10 1 0.628997 0.431024 0.350419
9 1 0.599357 0.434004 0.342211
8 1 0.581305 0.454108 0.329977
11 1 0.636098 0.416072 0.374492
12 1 0.652629 0.418067 0.399271
14 1 0.64058 0.409533 0.448909
13 1 0.642755 0.421987 0.422747
16 1 0.632451 0.404939 0.499819
15 1 0.62458 0.410019 0.471162
24 1 0.474145 0.302637 0.518949
23 1 0.493393 0.293374 0.527599
22 1 0.516958 0.300035 0.538138
21 1 0.544402 0.309046 0.534494
19 1 0.582827 0.343452 0.526516
18 1 0.601907 0.363453 0.516019
17 1 0.625612 0.375121 0.509694
20 1 0.554659 0.332294 0.532458
4 1 0.518607 0.524325 0.335436
1 1 0.53559 0.597173 0.313116
3 1 0.510264 0.547796 0.329538
2 1 0.532428 0.569983 0.322157
5 1 0.521739 0.502707 0.3241
ITEM: TIMESTEP
16000
ITEM: NUMBER OF ATOMS
24
ITEM: BOX BOUNDS pp pp pp
-1.3500000000000000e+01 3.6500000000000000e+01
-2.5000000000000000e+01 2.5000000000000000e+01
-2.5000000000000000e+01 2.5000000000000000e+01
ITEM: ATOMS id type xs ys zs
9 1 0.618956 0.438745 0.382138
8 1 0.608035 0.450009 0.356875
10 1 0.639305 0.420917 0.392663
7 1 0.60749 0.472956 0.357031
6 1 0.599644 0.497367 0.368291
13 1 0.648413 0.387327 0.464351
14 1 0.66555 0.38949 0.485982
15 1 0.652986 0.386323 0.511745
11 1 0.633055 0.39851 0.413907
18 1 0.603631 0.353957 0.549251
17 1 0.62225 0.352957 0.527984
16 1 0.644608 0.370937 0.527487
23 1 0.483066 0.314084 0.586592
22 1 0.500642 0.333453 0.580549
21 1 0.528973 0.338054 0.57483
20 1 0.551611 0.354362 0.556534
19 1 0.580429 0.34752 0.555532
12 1 0.641227 0.401644 0.434293
24 1 0.472517 0.301794 0.613185
1 1 0.54734 0.593036 0.314799
4 1 0.581159 0.548507 0.361227
5 1 0.589521 0.524361 0.358196
3 1 0.580261 0.572703 0.356214
2 1 0.570292 0.583242 0.330205
ITEM: TIMESTEP
17000
ITEM: NUMBER OF ATOMS
24
ITEM: BOX BOUNDS pp pp pp
-1.3500000000000000e+01 3.6500000000000000e+01
-2.5000000000000000e+01 2.5000000000000000e+01
-2.5000000000000000e+01 2.5000000000000000e+01
ITEM: ATOMS id type xs ys zs
11 1 0.62696 0.426946 0.436184
12 1 0.625075 0.405079 0.450867
13 1 0.63139 0.39231 0.473493
15 1 0.620309 0.36843 0.522692
14 1 0.621095 0.375739 0.493439
20 1 0.526361 0.32859 0.58616
18 1 0.572686 0.349208 0.590865
19 1 0.540167 0.344499 0.595743
17 1 0.592084 0.344853 0.567148
16 1 0.604108 0.351966 0.538392
21 1 0.499511 0.32318 0.586849
10 1 0.623777 0.455975 0.430835
9 1 0.618388 0.471551 0.410827
8 1 0.592326 0.478651 0.403067
24 1 0.450999 0.299444 0.62479
23 1 0.466091 0.324684 0.617354
22 1 0.486662 0.31532 0.604403
1 1 0.547621 0.615418 0.332005
5 1 0.537814 0.530522 0.372157
3 1 0.520873 0.578893 0.356366
2 1 0.532752 0.605702 0.352038
4 1 0.524514 0.55783 0.373293
6 1 0.55118 0.505853 0.3797
7 1 0.579004 0.499827 0.388003
ITEM: TIMESTEP
18000
ITEM: NUMBER OF ATOMS
24
ITEM: BOX BOUNDS pp pp pp
-1.3500000000000000e+01 3.6500000000000000e+01
-2.5000000000000000e+01 2.5000000000000000e+01
-2.5000000000000000e+01 2.5000000000000000e+01
ITEM: ATOMS id type xs ys zs
7 1 0.55407 0.476079 0.341908
8 1 0.555573 0.453838 0.357746
10 1 0.599296 0.430354 0.388312
9 1 0.572594 0.443504 0.380197
11 1 0.607871 0.410316 0.404805
19 1 0.510548 0.30977 0.550464
18 1 0.523507 0.334696 0.536436
17 1 0.550615 0.337436 0.529298
12 1 0.604337 0.408259 0.432
13 1 0.602094 0.383036 0.452112
14 1 0.590172 0.379816 0.47414
16 1 0.555391 0.349582 0.505686
15 1 0.56547 0.370724 0.486218
21 1 0.47609 0.302598 0.587467
20 1 0.500608 0.302912 0.576937
24 1 0.444286 0.302573 0.662725
23 1 0.444342 0.314311 0.633743
22 1 0.462571 0.29996 0.609747
3 1 0.515416 0.573961 0.349955
2 1 0.520703 0.599523 0.347114
1 1 0.510786 0.614514 0.32941
5 1 0.544574 0.530976 0.338109
4 1 0.528155 0.548773 0.355567
6 1 0.541432 0.501995 0.339673
ITEM: TIMESTEP
19000
ITEM: NUMBER OF ATOMS
24
ITEM: BOX BOUNDS pp pp pp
-1.3500000000000000e+01 3.6500000000000000e+01
-2.5000000000000000e+01 2.5000000000000000e+01
-2.5000000000000000e+01 2.5000000000000000e+01
ITEM: ATOMS id type xs ys zs
8 1 0.601007 0.469817 0.384475
9 1 0.611996 0.44759 0.394806
10 1 0.624656 0.42098 0.384517
7 1 0.594424 0.494447 0.384938
11 1 0.626646 0.402084 0.402249
12 1 0.609294 0.381355 0.405183
13 1 0.5835 0.375483 0.414637
14 1 0.576133 0.359477 0.437061
16 1 0.560843 0.344623 0.47824
15 1 0.556022 0.360021 0.457518
19 1 0.517343 0.331383 0.545892
18 1 0.525751 0.333365 0.516204
17 1 0.544126 0.343456 0.505634
20 1 0.500492 0.344914 0.566655
21 1 0.499443 0.352147 0.594338
22 1 0.479353 0.346891 0.620179
23 1 0.487586 0.352807 0.649801
24 1 0.500314 0.374002 0.660386
5 1 0.561243 0.543178 0.36363
1 1 0.504509 0.623035 0.334149
3 1 0.516001 0.578983 0.356737
4 1 0.52552 0.549367 0.356686
2 1 0.502697 0.596728 0.338471
6 1 0.572602 0.516343 0.381912
ITEM: TIMESTEP
20000
ITEM: NUMBER OF ATOMS
24
ITEM: BOX BOUNDS pp pp pp
-1.3500000000000000e+01 3.6500000000000000e+01
-2.5000000000000000e+01 2.5000000000000000e+01
-2.5000000000000000e+01 2.5000000000000000e+01
ITEM: ATOMS id type xs ys zs
10 1 0.607742 0.456992 0.394228
6 1 0.533392 0.493256 0.382159
14 1 0.567543 0.36502 0.421634
13 1 0.589243 0.380261 0.403921
12 1 0.591473 0.408099 0.405928
11 1 0.611084 0.428345 0.410132
8 1 0.57122 0.49018 0.407075
9 1 0.594778 0.485705 0.401459
16 1 0.539912 0.338532 0.462904
15 1 0.55776 0.356392 0.446242
18 1 0.525905 0.314987 0.512244
17 1 0.546063 0.327967 0.489769
20 1 0.510054 0.334727 0.555223
19 1 0.525801 0.330611 0.532053
22 1 0.484032 0.345867 0.593869
21 1 0.493599 0.351109 0.56953
24 1 0.460468 0.366713 0.63703
23 1 0.46151 0.356166 0.609191
4 1 0.496282 0.521097 0.353747
5 1 0.521704 0.507476 0.359957
3 1 0.496717 0.5544 0.34843
2 1 0.475938 0.574283 0.341123
1 1 0.454586 0.597326 0.34634
7 1 0.551705 0.502923 0.395734
ITEM: TIMESTEP
21000
ITEM: NUMBER OF ATOMS
24
ITEM: BOX BOUNDS pp pp pp
-1.3500000000000000e+01 3.6500000000000000e+01
-2.5000000000000000e+01 2.5000000000000000e+01
-2.5000000000000000e+01 2.5000000000000000e+01
ITEM: ATOMS id type xs ys zs
10 1 0.591372 0.464328 0.378418
11 1 0.602902 0.446241 0.391009
9 1 0.588912 0.489871 0.38101
14 1 0.624073 0.389617 0.444179
13 1 0.614728 0.416862 0.431435
19 1 0.546861 0.367819 0.537112
22 1 0.470249 0.354065 0.562574
21 1 0.491986 0.363648 0.550768
20 1 0.521968 0.359089 0.544947
16 1 0.607606 0.353485 0.487033
15 1 0.62021 0.378298 0.471476
18 1 0.573891 0.352962 0.527929
17 1 0.582721 0.350536 0.501849
12 1 0.59595 0.425424 0.41025
23 1 0.454029 0.358749 0.582403
24 1 0.444744 0.378345 0.601046
4 1 0.487597 0.549218 0.354727
5 1 0.498542 0.534455 0.377196
3 1 0.462167 0.552296 0.347711
2 1 0.452812 0.539584 0.321531
1 1 0.43947 0.51787 0.31621
6 1 0.522728 0.538443 0.384456
7 1 0.54564 0.526185 0.380064
8 1 0.567526 0.506903 0.388357
ITEM: TIMESTEP
22000
ITEM: NUMBER OF ATOMS
24
ITEM: BOX BOUNDS pp pp pp
-1.3500000000000000e+01 3.6500000000000000e+01
-2.5000000000000000e+01 2.5000000000000000e+01
-2.5000000000000000e+01 2.5000000000000000e+01
ITEM: ATOMS id type xs ys zs
10 1 0.583836 0.4749 0.39658
13 1 0.611688 0.418338 0.445223
12 1 0.599003 0.440246 0.438142
15 1 0.609377 0.391575 0.484284
14 1 0.607171 0.398041 0.457421
16 1 0.59672 0.373604 0.501711
17 1 0.5861 0.362828 0.52036
21 1 0.501773 0.313608 0.563194
20 1 0.534989 0.311453 0.547793
19 1 0.554097 0.329848 0.549393
18 1 0.562013 0.350081 0.5343
23 1 0.452852 0.321911 0.582455
22 1 0.475887 0.304783 0.571202
11 1 0.598988 0.467112 0.422557
24 1 0.426573 0.321683 0.592239
1 1 0.422717 0.603585 0.361747
2 1 0.43773 0.589658 0.336508
4 1 0.470759 0.554181 0.332804
3 1 0.447256 0.566422 0.325882
5 1 0.486711 0.541089 0.358021
6 1 0.514727 0.545444 0.368359
7 1 0.53329 0.529512 0.370002
8 1 0.555194 0.517341 0.390354
9 1 0.579542 0.500355 0.391417
ITEM: TIMESTEP
23000
ITEM: NUMBER OF ATOMS
24
ITEM: BOX BOUNDS pp pp pp
-1.3500000000000000e+01 3.6500000000000000e+01
-2.5000000000000000e+01 2.5000000000000000e+01
-2.5000000000000000e+01 2.5000000000000000e+01
ITEM: ATOMS id type xs ys zs
12 1 0.600322 0.442857 0.441552
11 1 0.592346 0.459284 0.420694
13 1 0.601482 0.416267 0.454876
14 1 0.59873 0.41004 0.484231
16 1 0.560959 0.373027 0.507696
15 1 0.571829 0.392957 0.48831
20 1 0.518397 0.296734 0.558645
19 1 0.518394 0.32711 0.555186
18 1 0.537272 0.342755 0.538918
17 1 0.541741 0.350604 0.515118
22 1 0.505941 0.250633 0.585611
21 1 0.506901 0.27367 0.56365
10 1 0.600844 0.479334 0.406593
24 1 0.464979 0.228628 0.612318
23 1 0.485689 0.247126 0.612764
3 1 0.463614 0.557051 0.352584
4 1 0.495956 0.554634 0.343913
5 1 0.519095 0.55378 0.355296
2 1 0.440113 0.567312 0.342337
7 1 0.554026 0.521681 0.373136
8 1 0.578025 0.520275 0.382175
1 1 0.428077 0.593551 0.337344
6 1 0.543278 0.537765 0.35286
9 1 0.585718 0.501389 0.403697
ITEM: TIMESTEP
24000
ITEM: NUMBER OF ATOMS
24
ITEM: BOX BOUNDS pp pp pp
-1.3500000000000000e+01 3.6500000000000000e+01
-2.5000000000000000e+01 2.5000000000000000e+01
-2.5000000000000000e+01 2.5000000000000000e+01
ITEM: ATOMS id type xs ys zs
10 1 0.60407 0.485696 0.449796
11 1 0.622776 0.469186 0.46494
17 1 0.5721 0.351653 0.516687
16 1 0.58986 0.368312 0.501704
15 1 0.605351 0.385786 0.511418
14 1 0.610199 0.413101 0.508493
13 1 0.628833 0.438868 0.507304
12 1 0.622431 0.455362 0.489419
20 1 0.531273 0.318862 0.557479
19 1 0.555368 0.329396 0.549001
18 1 0.564807 0.332585 0.5297
23 1 0.50059 0.263724 0.595541
21 1 0.525165 0.291888 0.561314
22 1 0.516651 0.281042 0.586571
24 1 0.502161 0.244945 0.614416
3 1 0.473707 0.529136 0.352368
2 1 0.453118 0.542638 0.351447
1 1 0.437459 0.551712 0.335952
4 1 0.499999 0.540416 0.358014
5 1 0.529461 0.523953 0.362109
6 1 0.553019 0.533659 0.376533
7 1 0.565306 0.529228 0.404797
8 1 0.588026 0.522613 0.420746
9 1 0.601154 0.501137 0.425479
ITEM: TIMESTEP
25000
ITEM: NUMBER OF ATOMS
24
ITEM: BOX BOUNDS pp pp pp
-1.3500000000000000e+01 3.6500000000000000e+01
-2.5000000000000000e+01 2.5000000000000000e+01
-2.5000000000000000e+01 2.5000000000000000e+01
ITEM: ATOMS id type xs ys zs
10 1 0.648576 0.487408 0.469728
11 1 0.643783 0.464636 0.490671
17 1 0.584761 0.378116 0.559432
16 1 0.604982 0.388371 0.575842
15 1 0.620202 0.411836 0.572832
14 1 0.639752 0.416495 0.557392
13 1 0.645934 0.440771 0.543188
12 1 0.653735 0.445987 0.512883
20 1 0.547237 0.313776 0.523467
19 1 0.559057 0.337698 0.537628
18 1 0.578108 0.355254 0.542304
23 1 0.504364 0.257616 0.559339
21 1 0.534898 0.295248 0.542297
22 1 0.528372 0.268855 0.55713
24 1 0.501006 0.246039 0.583077
3 1 0.53623 0.561928 0.348419
2 1 0.516707 0.553506 0.333211
1 1 0.511697 0.563694 0.309176
4 1 0.566567 0.552905 0.357166
5 1 0.57855 0.53334 0.382409
7 1 0.607411 0.519691 0.4221
8 1 0.627199 0.514385 0.439066
9 1 0.639839 0.508152 0.466202
6 1 0.593246 0.537605 0.403228
ITEM: TIMESTEP
26000
ITEM: NUMBER OF ATOMS
24
ITEM: BOX BOUNDS pp pp pp
-1.3500000000000000e+01 3.6500000000000000e+01
-2.5000000000000000e+01 2.5000000000000000e+01
-2.5000000000000000e+01 2.5000000000000000e+01
ITEM: ATOMS id type xs ys zs
15 1 0.607559 0.407312 0.573621
17 1 0.599924 0.366701 0.593959
16 1 0.614518 0.390234 0.587596
23 1 0.492704 0.289485 0.55124
21 1 0.543146 0.310538 0.545291
22 1 0.521984 0.292841 0.541621
20 1 0.559911 0.310682 0.556189
19 1 0.574217 0.328491 0.570975
18 1 0.593559 0.340799 0.587071
14 1 0.600863 0.429757 0.564878
13 1 0.608266 0.449269 0.542642
24 1 0.465749 0.278694 0.546955
12 1 0.624198 0.469185 0.545048
11 1 0.630208 0.495611 0.529161
1 1 0.515748 0.512705 0.348009
3 1 0.559478 0.510389 0.371635
2 1 0.542132 0.505973 0.351701
4 1 0.575542 0.527113 0.390377
5 1 0.599064 0.529231 0.395626
7 1 0.634095 0.516324 0.429093
6 1 0.61488 0.528327 0.416889
8 1 0.654225 0.522024 0.453395
9 1 0.655044 0.50714 0.479718
10 1 0.653717 0.506134 0.511851
ITEM: TIMESTEP
27000
ITEM: NUMBER OF ATOMS
24
ITEM: BOX BOUNDS pp pp pp
-1.3500000000000000e+01 3.6500000000000000e+01
-2.5000000000000000e+01 2.5000000000000000e+01
-2.5000000000000000e+01 2.5000000000000000e+01
ITEM: ATOMS id type xs ys zs
1 1 0.595633 0.46404 0.360707
2 1 0.619931 0.478462 0.365672
23 1 0.485887 0.287583 0.573424
24 1 0.475801 0.264535 0.583833
22 1 0.508909 0.305918 0.588839
16 1 0.601997 0.36932 0.565193
15 1 0.621151 0.384755 0.545246
13 1 0.619597 0.426081 0.518373
12 1 0.611549 0.44976 0.51613
11 1 0.617706 0.470225 0.499702
14 1 0.625859 0.409 0.538442
17 1 0.605156 0.354742 0.584999
10 1 0.614551 0.498308 0.490652
18 1 0.595561 0.331455 0.598485
20 1 0.545714 0.31568 0.616665
21 1 0.520991 0.31776 0.608658
19 1 0.568461 0.328336 0.615243
3 1 0.630515 0.50186 0.3628
4 1 0.64368 0.529407 0.375341
6 1 0.633935 0.55482 0.423711
7 1 0.625465 0.555024 0.453243
8 1 0.605578 0.540554 0.466696
9 1 0.612661 0.514661 0.470067
5 1 0.650102 0.538408 0.40085
ITEM: TIMESTEP
28000
ITEM: NUMBER OF ATOMS
24
ITEM: BOX BOUNDS pp pp pp
-1.3500000000000000e+01 3.6500000000000000e+01
-2.5000000000000000e+01 2.5000000000000000e+01
-2.5000000000000000e+01 2.5000000000000000e+01
ITEM: ATOMS id type xs ys zs
12 1 0.610419 0.447206 0.562077
13 1 0.609275 0.421619 0.57102
16 1 0.610103 0.364717 0.587989
11 1 0.624695 0.461922 0.544185
15 1 0.590164 0.380721 0.577487
14 1 0.592357 0.40079 0.56313
2 1 0.592665 0.486359 0.417503
18 1 0.598025 0.319026 0.590887
10 1 0.642704 0.483461 0.546725
19 1 0.596667 0.292838 0.592469
1 1 0.604947 0.464054 0.403889
20 1 0.575192 0.279454 0.588784
17 1 0.604405 0.339778 0.599062
21 1 0.558269 0.267503 0.605794
23 1 0.519629 0.287372 0.648123
24 1 0.495409 0.28425 0.653794
22 1 0.533934 0.278364 0.62141
6 1 0.615091 0.556316 0.473706
7 1 0.632792 0.550615 0.498173
9 1 0.645848 0.507321 0.531006
8 1 0.632384 0.53649 0.521929
4 1 0.597336 0.536903 0.438736
5 1 0.613158 0.547552 0.452361
3 1 0.598259 0.503283 0.436435
ITEM: TIMESTEP
29000
ITEM: NUMBER OF ATOMS
24
ITEM: BOX BOUNDS pp pp pp
-1.3500000000000000e+01 3.6500000000000000e+01
-2.5000000000000000e+01 2.5000000000000000e+01
-2.5000000000000000e+01 2.5000000000000000e+01
ITEM: ATOMS id type xs ys zs