LAMMPS (29 Aug 2024 - Update 1)
Reading data file ...
  orthogonal box = (-13.5 -25 -25) to (36.5 25 25)
  1 by 2 by 5 MPI processor grid
  reading atoms ...
  24 atoms
  reading velocities ...
  24 velocities
  scanning bonds ...
  1 = max bonds/atom
  scanning angles ...
  1 = max angles/atom
  scanning dihedrals ...
  1 = max dihedrals/atom
  orthogonal box = (-13.5 -25 -25) to (36.5 25 25)
  1 by 2 by 5 MPI processor grid
  reading bonds ...
  23 bonds
  reading angles ...
  22 angles
  reading dihedrals ...
  21 dihedrals
Finding 1-2 1-3 1-4 neighbors ...
  special bond factors lj:    0        0        0       
  special bond factors coul:  0        0        0       
     2 = max # of 1-2 neighbors
     2 = max # of 1-3 neighbors
     4 = max # of 1-4 neighbors
     6 = max # of special neighbors
  special bonds CPU = 0.001 seconds
  read_data CPU = 0.010 seconds
24 atoms in group hep

CITE-CITE-CITE-CITE-CITE-CITE-CITE-CITE-CITE-CITE-CITE-CITE-CITE

Your simulation uses code contributions which should be cited:
- Type Label Framework: https://doi.org/10.1021/acs.jpcb.3c08419
The log file lists these citations in BibTeX format.

CITE-CITE-CITE-CITE-CITE-CITE-CITE-CITE-CITE-CITE-CITE-CITE-CITE

Generated 0 of 0 mixed pair_coeff terms from geometric mixing rule
Neighbor list info ...
  update: every = 1 steps, delay = 0 steps, check = yes
  max neighbors/atom: 2000, page size: 100000
  master list distance cutoff = 3.8
  ghost atom cutoff = 3.8
  binsize = 1.9, bins = 27 27 27
  2 neighbor lists, perpetual/occasional/extra = 2 0 0
  (1) pair lj/cut, perpetual, trim from (2)
      attributes: half, newton on, cut 2.8
      pair build: trim
      stencil: none
      bin: none
  (2) pair coul/debye, perpetual
      attributes: half, newton on
      pair build: half/bin/newton
      stencil: half/bin/3d
      bin: standard
Setting up cg style minimization ...
  Unit style    : lj
  Current step  : 0
Per MPI rank memory allocation (min/avg/max) = 8.653 | 8.772 | 9.24 Mbytes
   Step          Temp          TotEng         KinEng         PotEng         E_pair         E_bond        E_angle        E_dihed    
         0   1.13835        8.1953362      1.6363781      6.5589581      0.14513486     5.0860105      0.58491118     0.74290156   
       100   1.13835        2.241244       1.6363781      0.60486586     0              0.00012518382  0.0013946016   0.60334607   
       200   1.13835        2.2305096      1.6363781      0.59413148     0              4.062859e-05   0.00071727167  0.59337358   
       300   1.13835        2.2271535      1.6363781      0.59077532     0              9.4875443e-06  0.0003087976   0.59045703   
       400   1.13835        2.2263884      1.6363781      0.59001026     0              3.1212361e-06  0.00011608947  0.58989105   
       500   1.13835        2.2259442      1.6363781      0.5895661      0              2.4342634e-06  4.08331e-05    0.58952284   
       512   1.13835        2.225904       1.6363781      0.58952589     0              1.5603708e-06  3.4123679e-05  0.58949021   
Loop time of 0.023716 on 10 procs for 512 steps with 24 atoms

94.9% CPU use with 10 MPI tasks x no OpenMP threads

Minimization stats:
  Stopping criterion = max force evaluations
  Energy initial, next-to-last, final = 
      6.55895807343892  0.589527799607985  0.589525890394798
  Force two-norm initial, final = 100.51372 0.084820383
  Force max component initial, final = 27.79055 0.026007047
  Final line search alpha, max atom move = 1 0.026007047
  Iterations, force evaluations = 512 1001

MPI task timing breakdown:
Section |  min time  |  avg time  |  max time  |%varavg| %total
---------------------------------------------------------------
Pair    | 9.8007e-05 | 0.00016772 | 0.0002295  |   0.0 |  0.71
Bond    | 4.6779e-05 | 0.00028071 | 0.0012477  |   0.0 |  1.18
Neigh   | 0.001251   | 0.001527   | 0.0017182  |   0.3 |  6.44
Comm    | 0.00073713 | 0.0032328  | 0.0067879  |   3.7 | 13.63
Output  | 9.9209e-05 | 0.00010119 | 0.00011558 |   0.0 |  0.43
Modify  | 0          | 0          | 0          |   0.0 |  0.00
Other   |            | 0.01841    |            |       | 77.61

Nlocal:            2.4 ave          14 max           0 min
Histogram: 7 0 1 0 1 0 0 0 0 1
Nghost:            4.2 ave          18 max           0 min
Histogram: 4 1 3 0 1 0 0 0 0 1
Neighs:              0 ave           0 max           0 min
Histogram: 10 0 0 0 0 0 0 0 0 0

Total # of neighbors = 0
Ave neighs/atom = 0
Ave special neighs/atom = 5.5
Neighbor list builds = 74
Dangerous builds = 0
Generated 0 of 0 mixed pair_coeff terms from geometric mixing rule
Setting up Verlet run ...
  Unit style    : lj
  Current step  : 512
  Time step     : 0.005
Per MPI rank memory allocation (min/avg/max) = 7.529 | 7.873 | 9.116 Mbytes
   Step          Temp          TotEng         KinEng         PotEng         E_pair         E_bond        E_angle        E_dihed    
       512   1.13835        2.225904       1.6363781      0.58952589     0              1.5603708e-06  3.4123679e-05  0.58949021   
       600   0.73243937     2.316782       1.0528816      1.2639004      0              0.19020126     0.33260428     0.74109489   
       700   0.87947953     2.9570637      1.2642518      1.6928119      0              0.52506493     0.42001022     0.74773671   
       800   0.96358719     3.0929867      1.3851566      1.7078301      0              0.5497675      0.38430745     0.77375513   
       900   0.95420922     3.3047339      1.3716757      1.9330582      0              0.64541036     0.49737421     0.79027359   
      1000   1.1729548      3.4232977      1.6861225      1.7371752      0              0.5175209      0.46188494     0.75776933   
      1100   1.2552837      3.4297817      1.8044703      1.6253114      0              0.36750903     0.42044684     0.83735554   
      1200   1.0857976      3.7060847      1.560834       2.1452506      0              0.7140791      0.47958546     0.95158609   
      1300   1.0711466      3.4839846      1.5397732      1.9442114      0              0.6247483      0.51953402     0.7999291    
      1400   1.098568       3.5458281      1.5791915      1.9666366      0              0.50069107     0.68835398     0.77759155   
      1500   1.2412621      3.5875138      1.7843143      1.8031995      0              0.43261541     0.61620984     0.75437425   
      1600   0.76916376     3.0518306      1.1056729      1.9461577      0              0.70068641     0.47663321     0.76883813   
      1700   1.0649355      3.4612902      1.5308448      1.9304454      0              0.73769748     0.42687085     0.76587705   
      1800   1.0570721      3.2187497      1.5195411      1.6992086      0              0.47576869     0.47879017     0.74464977   
      1900   1.2236393      3.2856506      1.7589816      1.526669       0              0.50224839     0.25014225     0.77427838   
      2000   1.3317783      3.5763044      1.9144313      1.6618731      0              0.41187762     0.46770899     0.78228652   
      2100   1.3384361      3.827736       1.9240019      1.9037341      0              0.71668575     0.34136088     0.84568746   
      2200   0.98222315     3.454371       1.4119458      2.0424253      0              0.745101       0.45803888     0.83928539   
      2300   1.1900868      3.5364975      1.7107498      1.8257477      0              0.65064621     0.34166218     0.83343927   
      2400   1.2096074      3.2837205      1.7388106      1.5449099      0              0.49577524     0.25149691     0.79763773   
      2500   1.3634962      3.5121732      1.9600257      1.5521474      0              0.42967391     0.31515328     0.80732024   
      2600   1.3141205      3.423188       1.8890482      1.5341397      0              0.39450037     0.32085547     0.8187839    
      2700   0.90164994     3.1888558      1.2961218      1.8927341      0              0.60738705     0.48066103     0.80468598   
      2800   0.8612457      3.025941       1.2380407      1.7879003      0              0.47971651     0.40248379     0.90570006   
      2900   0.86769669     2.8831681      1.247314       1.6358541      0              0.42059852     0.47474103     0.74051453   
      3000   1.2027262      3.2098749      1.728919       1.4809559      0              0.51116472     0.23389435     0.73589681   
      3100   0.93217889     2.7906554      1.3400072      1.4506482      0              0.30534073     0.30170894     0.84359856   
      3200   0.70431976     2.8803188      1.0124597      1.8678592      0              0.64353105     0.41107206     0.81325606   
      3300   0.94285355     2.9042985      1.355352       1.5489465      0              0.3455843      0.41529008     0.78807215   
      3400   0.83089543     2.6431906      1.1944122      1.4487784      0              0.24887745     0.40837931     0.79152166   
      3500   0.8100788      2.6950217      1.1644883      1.5305335      0              0.47877478     0.24066728     0.81109142   
      3600   0.79416949     2.6387915      1.1416186      1.4971729      0              0.43908        0.25429833     0.80379455   
      3700   0.73175793     2.7241994      1.051902       1.6722974      0              0.57732821     0.22099089     0.87397832   
      3800   0.8811925      3.0165126      1.2667142      1.7497983      0              0.59416459     0.29345595     0.8621778    
      3900   1.0177662      3.2484692      1.4630389      1.7854304      0              0.67673173     0.37313101     0.73556762   
      4000   0.85808952     3.4438099      1.2335037      2.2103062      0              0.6021733      0.75653274     0.85160013   
      4100   0.8067688      2.9789366      1.1597302      1.8192064      0              0.54560822     0.48390376     0.78969443   
      4200   0.93163517     3.034622       1.3392256      1.6953964      0              0.58963734     0.33220487     0.77355418   
      4300   0.95176289     2.9266157      1.3681592      1.5584565      0              0.4837614      0.2610662      0.81362894   
      4400   0.80902678     2.6301627      1.162976       1.4671867      0              0.36331432     0.36517328     0.73869912   
      4500   0.90296343     2.9549492      1.2980099      1.6569393      0              0.45421628     0.46022397     0.74249903   
      4600   0.98761294     3.0374748      1.4196936      1.6177812      0              0.60978108     0.22465908     0.78334102   
      4700   1.046069       3.249714       1.5037242      1.7459898      0              0.61829497     0.16267952     0.96501527   
      4800   1.0557972      3.3903812      1.5177085      1.8726727      0              0.66859279     0.35986451     0.84421541   
      4900   0.98040108     3.4591817      1.4093265      2.0498552      0              0.64075154     0.56297888     0.84612474   
      5000   1.0221231      3.6321015      1.469302       2.1627995      0              0.74471891     0.49863869     0.91944189   
      5100   1.2553017      3.7243375      1.8044961      1.9198414      0              0.61228438     0.54824718     0.75930979   
      5200   1.1910658      3.5727728      1.7121571      1.8606157      0              0.5831318      0.42411679     0.85336707   
      5300   1.2892307      3.3291773      1.8532692      1.4759081      0              0.28495659     0.43034944     0.76060211   
      5400   1.29432        3.2486044      1.860585       1.3880194      0              0.33048966     0.23564826     0.82188152   
      5500   0.94315244     2.9716225      1.3557816      1.6158408      0              0.46861606     0.32175241     0.82547237   
      5600   1.1829097      3.2261785      1.7004327      1.5257458      0              0.45059316     0.39808735     0.67706531   
      5700   0.79411936     2.9922717      1.1415466      1.8507251      0              0.61703914     0.34529699     0.88838897   
      5800   0.97424144     3.0905239      1.4004721      1.6900519      0              0.35043444     0.38379808     0.95581933   
      5900   0.92244595     3.1622542      1.326016       1.8362382      0              0.43589632     0.61722009     0.78312178   
      6000   0.83577436     2.8524664      1.2014256      1.6510408      0              0.46490191     0.40664997     0.77948889   
      6100   0.79117733     2.9905822      1.1373174      1.8532648      0              0.39055317     0.64852925     0.81418238   
      6200   1.0425214      3.1887599      1.4986245      1.6901353      0              0.26904605     0.58746828     0.83362101   
      6300   1.1406631      3.3523343      1.6397033      1.7126311      0              0.42939895     0.43705745     0.84617469   
      6400   1.1838967      3.5726026      1.7018515      1.870751       0              0.65330815     0.45038373     0.76705915   
      6500   0.83231455     3.3871912      1.1964522      2.1907391      0              0.82294481     0.37753667     0.99025759   
      6600   1.2349882      3.4344401      1.7752955      1.6591446      0              0.49329204     0.3043599      0.86149267   
      6700   1.1376782      3.8658099      1.6354125      2.2303974      0              1.0890153      0.2849323      0.85644983   
      6800   1.4548543      3.9458018      2.0913531      1.8544486      0              0.63240454     0.42000976     0.80203435   
      6900   1.5170924      3.9060079      2.1808203      1.7251875      0              0.66795704     0.35471807     0.70251243   
      7000   1.4676912      3.7446595      2.109806       1.6348535      0              0.51988824     0.21385794     0.90110732   
      7100   1.0943406      3.1005625      1.5731146      1.5274479      0              0.4437126      0.32850763     0.75522767   
      7200   0.89379412     2.939592       1.284829       1.654763       0              0.59081275     0.29956393     0.76438628   
      7300   0.95126694     2.8918595      1.3674462      1.5244132      0              0.41847445     0.32335969     0.78257909   
      7400   0.94747431     3.1396872      1.3619943      1.7776929      0              0.49856253     0.45982713     0.81930321   
      7500   1.2203374      3.2881383      1.754235       1.5339033      0              0.40657248     0.36441835     0.76291243   
      7600   1.3105556      3.4395923      1.8839237      1.5556686      0              0.45639062     0.30696517     0.79231285   
      7700   1.1282829      3.2525101      1.6219067      1.6306034      0              0.43850458     0.39676572     0.79533314   
      7800   0.96010068     3.1409678      1.3801447      1.760823       0              0.67040108     0.35446226     0.7359597    
      7900   1.0086122      2.7943603      1.4498801      1.3444802      0              0.42861502     0.25283043     0.66303472   
      8000   1.0009154      3.0428838      1.4388158      1.604068       0              0.42453583     0.38601535     0.7935168    
      8100   1.1162347      3.3945906      1.6045873      1.7900033      0              0.55973506     0.42935409     0.80091414   
      8200   1.0510988      3.2860025      1.5109545      1.775048       0              0.46763692     0.47564169     0.83176936   
      8300   1.084118       3.1590819      1.5584196      1.6006623      0              0.40075462     0.31847418     0.88143354   
      8400   1.032195       3.0284386      1.4837803      1.5446583      0              0.25903902     0.37077398     0.91484527   
      8500   0.7173142      2.7226169      1.0311392      1.6914777      0              0.35793405     0.48544487     0.84809881   
      8600   0.95304665     3.3189472      1.3700046      1.9489426      0              0.54881565     0.64118353     0.75894345   
      8700   1.0659083      3.1531136      1.5322431      1.6208705      0              0.41715569     0.45177582     0.75193901   
      8800   0.76749198     3.2166682      1.1032697      2.1133985      0              0.59978317     0.61128269     0.90233263   
      8900   0.89394434     3.067226       1.285045       1.782181       0              0.43921418     0.60609835     0.73686846   
      9000   0.82244864     3.2869327      1.1822699      2.1046628      0              0.61061657     0.65593238     0.83811388   
      9100   1.1088022      3.0515995      1.5939031      1.4576963      0              0.33602315     0.38048992     0.74118327   
      9200   1.4187328      3.6146501      2.0394284      1.5752217      0              0.39386099     0.50324471     0.67811597   
      9300   1.3364373      3.6701963      1.9211286      1.7490676      0              0.34170606     0.50027996     0.90708162   
      9400   1.003337       3.6093569      1.4422969      2.1670599      0              0.51226016     0.7850431      0.86975666   
      9500   1.1462865      3.9908411      1.6477869      2.3430542      0.0111734      0.53698973     0.82897765     0.96591343   
      9600   1.0233462      4.214165       1.4710602      2.7431047      0              1.0734702      0.66003197     1.0096026    
      9700   1.106142       3.8662663      1.5900791      2.2761872      0              0.72827931     0.53936572     1.0085422    
      9800   1.0508172      3.2923576      1.5105497      1.7818079      0              0.48340657     0.53140459     0.76699672   
      9900   0.87582939     2.9700632      1.2590047      1.7110584      0              0.42159022     0.48412042     0.8053478    
     10000   1.1253675      3.2135176      1.6177158      1.5958018      0              0.357139       0.35478518     0.88387761   
     10100   1.0078749      3.0357827      1.4488202      1.5869626      0              0.43258743     0.37776364     0.77661151   
     10200   1.020243       3.3749189      1.4665993      1.9083197      0              0.35055154     0.61157353     0.9461946    
     10300   1.1145736      3.5042114      1.6021995      1.9020119      0.014134599    0.4381443      0.55093182     0.89880118   
     10400   1.3495551      4.0225768      1.9399855      2.0825913      0              0.54822916     0.54837856     0.98598361   
     10500   1.1930289      3.6282306      1.714979       1.9132516      0              0.48163567     0.42947772     1.0021382    
     10600   1.0273806      3.3321594      1.4768597      1.8552997      0              0.54567739     0.47657792     0.83304441   
     10700   1.1964787      3.7980318      1.7199381      2.0780937      0              0.7959627      0.28706239     0.99506865   
     10800   0.75219959     3.2254007      1.0812869      2.1441138      0              1.0065583      0.3034013      0.83415424   
     10900   0.9960097      3.4345229      1.4317639      2.0027589      0              0.462983       0.42951278     1.1102631    
     11000   0.87513443     3.0548349      1.2580057      1.7968291      0              0.50320551     0.42463063     0.868993     
     11100   1.0025386      3.4314331      1.4411492      1.9902838      0              0.59840137     0.4481932      0.94368928   
     11200   1.3167816      3.6478231      1.8928735      1.7549495      0              0.32128338     0.61574949     0.81791668   
     11300   1.3974355      3.416906       2.0088135      1.4080924      0              0.2912785      0.31172288     0.80509107   
     11400   1.1083085      3.6572038      1.5931934      2.0640104      0              0.69450465     0.36382467     1.005681     
     11500   0.99187597     3.1778826      1.4258217      1.7520609      0              0.53001488     0.37774477     0.84430128   
     11600   1.1560079      3.1262256      1.6617614      1.4644641      0              0.44011462     0.2352152      0.78913432   
     11700   1.0086425      3.2040645      1.4499236      1.7541409      0              0.36274573     0.63273795     0.75865718   
     11800   1.1970028      3.5026322      1.7206916      1.7819406      0              0.39633411     0.44235379     0.94325274   
     11900   1.1006606      3.9863003      1.5821996      2.4041007      0              0.54491226     0.83394672     1.0252418    
     12000   1.3329315      3.957432       1.916089       2.041343       0              0.41779597     0.73887295     0.88467408   
     12100   1.3261104      3.8117973      1.9062837      1.9055135      0              0.54568463     0.44370313     0.91612579   
     12200   1.2460388      3.4112957      1.7911808      1.620115       0              0.48271085     0.34334321     0.79406092   
     12300   1.1215777      3.5639055      1.6122679      1.9516376      0              0.69705373     0.37930587     0.875278     
     12400   1.1070704      3.2107863      1.5914137      1.6193725      0              0.29805219     0.40007383     0.92124652   
     12500   0.82298866     2.6289539      1.1830462      1.4459077      0              0.36814506     0.25067326     0.82708939   
     12600   1.0221238      3.005146       1.4693029      1.535843       0              0.38186622     0.36541383     0.788563     
     12700   0.90507795     2.9839795      1.3010495      1.68293        0              0.42080998     0.51038703     0.75173298   
     12800   1.0408436      3.3001194      1.4962127      1.8039067      0              0.53891156     0.44537812     0.81961704   
     12900   1.1055764      3.6433532      1.5892661      2.0540871      0              0.58131623     0.60840695     0.86436391   
     13000   1.1607956      3.310144       1.6686436      1.6415003      0              0.47300011     0.3593797      0.80912052   
     13100   1.0273436      3.1129248      1.4768064      1.6361184      0              0.35101853     0.49149698     0.79360284   
     13200   0.97939052     3.0195715      1.4078739      1.6116976      0              0.3741302      0.42671119     0.81085621   
     13300   0.98183908     3.2839677      1.4113937      1.872574       0              0.68081389     0.3118568      0.87990332   
     13400   0.89256016     3.47311        1.2830552      2.1900548      0              0.60633185     0.80542173     0.77830121   
     13500   1.0210342      3.1458216      1.4677367      1.678085       0              0.49369224     0.45785643     0.7265363    
     13600   0.86497756     3.1476161      1.2434052      1.9042108      0              0.59037442     0.5209336      0.7929028    
     13700   0.9816004      3.1735857      1.4110506      1.7625352      0              0.39081856     0.52679713     0.84491948   
     13800   1.1451242      3.3080524      1.646116       1.6619364      0              0.41186264     0.50127097     0.74880283   
     13900   1.1086746      3.4182889      1.5937197      1.8245691      0              0.55259427     0.50483972     0.76713515   
     14000   1.2742276      3.622081       1.8317022      1.7903789      0              0.43675763     0.56071115     0.79291009   
     14100   1.1463586      3.5183266      1.6478905      1.8704361      0              0.42378973     0.43642007     1.0102263    
     14200   0.90841289     3.3253468      1.3058435      2.0195033      0.011136898    0.57766665     0.46279607     0.96790365   
     14300   0.87412106     3.1682108      1.256549       1.9116617      0.012253164    0.65347465     0.44198953     0.8039444    
     14400   0.93950852     2.9385669      1.3505435      1.5880234      0              0.48549192     0.24616005     0.85637148   
     14500   0.88917694     2.8307267      1.2781918      1.5525349      0              0.42425393     0.29907466     0.82920631   
     14600   0.99871753     3.0403441      1.4356565      1.6046877      0              0.46971148     0.44679233     0.68818385   
     14700   0.84584844     3.31597        1.2159071      2.1000628      0              0.71742399     0.52235651     0.86028233   
     14800   1.103727       3.3241529      1.5866075      1.7375454      0              0.56302911     0.44135152     0.73316472   
     14900   1.1796512      3.5455338      1.6957487      1.8497851      0              0.45452674     0.5961448      0.79911356   
     15000   1.1670949      3.3358515      1.6776988      1.6581526      0              0.44228477     0.44059894     0.77526893   
     15100   0.92177907     3.2415278      1.3250574      1.9164704      0              0.59174312     0.28768373     1.0370436    
     15200   0.93476064     3.2145258      1.3437184      1.8708073      0              0.44569719     0.5643874      0.86072276   
     15300   1.0611881      3.1455458      1.5254578      1.6200879      0              0.46703173     0.33428114     0.81877506   
     15400   1.0415403      2.9816977      1.4972141      1.4844836      0              0.38095267     0.30469189     0.79883903   
     15500   1.0677535      3.2617217      1.5348957      1.726826       0              0.4127031      0.56277507     0.75134783   
     15600   1.0382717      3.3144658      1.4925156      1.8219502      0              0.36406187     0.46501129     0.99287702   
     15700   0.92721776     3.2599729      1.3328755      1.9270973      0              0.68776824     0.48872959     0.7505995    
     15800   1.2747628      3.7428536      1.8324716      1.910382       0              0.47689048     0.64274192     0.79074964   
     15900   1.0591287      3.3167162      1.5224975      1.7942187      0              0.53185759     0.3877929      0.87456826   
     16000   1.210856       3.7943431      1.7406055      2.0537376      0              0.6709761      0.51830753     0.86445401   
     16100   0.85965974     3.4204085      1.2357609      2.1846476      0              0.624025       0.57212843     0.98849417   
     16200   1.0025447      3.1298494      1.441158       1.6886914      0              0.45082269     0.46973211     0.76813659   
     16300   0.74516077     2.9199801      1.0711686      1.8488115      0              0.4200387      0.36735648     1.0614163    
     16400   1.0929139      3.0462044      1.5710637      1.4751407      0              0.37685723     0.34124444     0.75703902   
     16500   1.1404918      3.3327621      1.639457       1.6933051      0              0.55138574     0.33017813     0.8117412    
     16600   1.2744636      3.3907689      1.8320414      1.5587274      0              0.38537049     0.28826719     0.88508975   
     16700   1.2162208      3.5434676      1.7483174      1.7951502      0              0.62286817     0.43509972     0.73718233   
     16800   1.5387665      3.5202375      2.2119769      1.3082606      0              0.29663241     0.3084435      0.70318471   
     16900   1.0995917      2.9296876      1.580663       1.3490245      0              0.35913042     0.25066038     0.73923372   
     17000   0.86842722     3.1163055      1.2483641      1.8679414      0              0.43869011     0.42130902     1.0079423    
     17100   1.0373212      2.9758282      1.4911492      1.484679       0              0.24380738     0.37625798     0.8646136    
     17200   0.85899097     3.028127       1.2347995      1.7933275      0              0.4162209      0.60394937     0.77315719   
     17300   0.80674694     2.9307741      1.1596987      1.7710753      0              0.36688539     0.48724994     0.91694002   
     17400   1.121563       3.6870542      1.6122467      2.0748074      0              0.63493647     0.60405496     0.83581601   
     17500   1.2784874      3.9849867      1.8378256      2.1471611      0              0.78482981     0.47265781     0.88967346   
     17600   1.1548191      3.4427653      1.6600524      1.7827129      0              0.3368188      0.37108281     1.0748113    
     17700   1.1027805      3.4389514      1.585247       1.8537043      0              0.70001343     0.25546542     0.89822549   
     17800   1.0936015      3.2231638      1.5720522      1.6511116      0              0.41231931     0.49777083     0.74102149   
     17900   0.89272162     3.2271934      1.2832873      1.943906       0              0.61946581     0.38611775     0.93832249   
     18000   1.308919       3.4127005      1.8815711      1.5311294      0              0.38145573     0.34994403     0.79972965   
     18100   1.0047471      3.0263823      1.4443239      1.5820584      0              0.34605563     0.4096754      0.82632733   
     18200   1.0174661      2.9997249      1.4626076      1.5371173      0              0.22171446     0.31820779     0.99719504   
     18300   0.86774748     2.7908162      1.247387       1.5434292      0              0.38497204     0.34119615     0.81726101   
     18400   0.99769757     2.8959652      1.4341903      1.461775       0              0.286481       0.30444012     0.87085386   
     18500   1.1038481      3.3585504      1.5867816      1.7717688      0              0.50289205     0.36909478     0.89978194   
     18600   0.88634448     3.1088864      1.2741202      1.8347662      0              0.35221851     0.61855845     0.86398919   
     18700   1.0634432      3.2934424      1.5286996      1.7647427      0              0.43272432     0.47429984     0.85771859   
     18800   1.2944613      3.6697749      1.8607881      1.8089868      0              0.43339503     0.63937245     0.73621929   
     18900   1.3136312      3.6495888      1.8883448      1.761244       0              0.4037453      0.63336172     0.724137     
     19000   0.96406613     3.4510752      1.3858451      2.0652301      0              0.80262191     0.43663679     0.82597142   
     19100   0.89036423     3.1389576      1.2798986      1.859059       0              0.72902085     0.35278344     0.77725469   
     19200   1.054138       3.3552062      1.5153233      1.8398828      0              0.56107219     0.47314424     0.80566639   
     19300   0.98307492     3.4512019      1.4131702      2.0380317      0              0.56259316     0.57152158     0.90391693   
     19400   0.91165636     3.3203902      1.310506       2.0098842      0              0.54267509     0.58661156     0.88059751   
     19500   1.2195831      3.5066065      1.7531507      1.7534558      0              0.39701858     0.47495641     0.88148085   
     19600   1.2545684      3.3634319      1.8034421      1.5599899      0              0.30283262     0.41463797     0.84251926   
     19700   1.419          3.9456623      2.0398125      1.9058499      0              0.56574765     0.5388344      0.8012678    
     19800   1.2273914      3.4691339      1.7643752      1.7047588      0              0.4802082      0.37420676     0.85034379   
     19900   1.0538395      2.9948828      1.5148942      1.4799885      0              0.27118375     0.46283628     0.74596847   
     20000   1.0511922      3.4426761      1.5110888      1.9315874      0              0.57346887     0.56448809     0.7936304    
     20100   1.0126813      3.3537081      1.4557294      1.8979787      0              0.50685518     0.51168465     0.87943883   
     20200   1.1618284      3.5907148      1.6701283      1.9205865      0              0.63637316     0.51365437     0.77055901   
     20300   1.1630886      3.8832844      1.6719398      2.2113446      0              0.61360823     0.72405055     0.87368578   
     20400   1.1748397      3.5795633      1.688832       1.8907313      0              0.59686748     0.45435893     0.83950487   
     20500   1.2775831      3.4571917      1.8365257      1.620666       0              0.32597905     0.41870801     0.87597899   
     20600   0.94201491     3.1986183      1.3541464      1.8444718      0              0.51307981     0.54107624     0.79031576   
     20700   0.72608844     2.9185739      1.0437521      1.8748218      0              0.60087723     0.35535917     0.91858536   
     20800   0.89199454     3.0827856      1.2822422      1.8005435      0              0.52936783     0.46478356     0.80639211   
     20900   1.0962138      3.015211       1.5758073      1.4394037      0              0.44679611     0.25574835     0.73685922   
     21000   1.2872588      3.3604091      1.8504345      1.5099746      0              0.3455839      0.29541229     0.8689784    
     21100   0.95251815     3.1312486      1.3692448      1.7620038      0              0.48048306     0.34089112     0.94062959   
     21200   0.82735669     2.7393662      1.1893252      1.550041       0              0.35251053     0.36586826     0.8316622    
     21300   0.92196368     2.7222983      1.3253228      1.3969755      0              0.35213389     0.28726729     0.75757434   
     21400   0.86053588     2.9395883      1.2370203      1.7025679      0              0.66148864     0.19390113     0.84717818   
     21500   0.95128331     2.9000813      1.3674698      1.5326115      0              0.40538888     0.21203289     0.91518978   
     21600   0.88536455     2.7456504      1.2727115      1.4729389      0              0.44055553     0.18344628     0.84893706   
     21700   0.91356665     2.9498436      1.3132521      1.6365916      0              0.34982171     0.33358574     0.95318412   
     21800   0.90475141     3.1517777      1.3005802      1.8511976      0              0.71923698     0.29157467     0.8403859    
     21900   1.2724191      3.2891534      1.8291024      1.460051       0              0.39398313     0.29448604     0.77158184   
     22000   1.2576088      3.671178       1.8078127      1.8633653      0              0.72098874     0.34992966     0.79244692   
     22100   1.2502224      3.5173418      1.7971948      1.7201471      0              0.70947549     0.27566125     0.73501034   
     22200   0.98363205     3.0876103      1.4139711      1.6736393      0              0.71579415     0.24542733     0.71241779   
     22300   1.0707475      3.5249495      1.5391995      1.98575        0              0.68627742     0.3853005      0.91417204   
     22400   1.0034667      3.0718153      1.4424833      1.6293319      0              0.51132686     0.31045207     0.80755302   
     22500   1.0570118      3.1862108      1.5194544      1.6667563      0              0.49769505     0.40399262     0.76506867   
     22600   1.1697005      3.149268       1.6814445      1.4678235      0              0.40184928     0.34028679     0.72568745   
     22700   1.0201837      3.0820134      1.466514       1.6154994      0              0.33162177     0.39591654     0.88796106   
     22800   0.89939564     2.954263       1.2928812      1.6613817      0              0.46797616     0.42981171     0.76359387   
     22900   1.0776136      3.3554917      1.5490695      1.8064222      0              0.5539211      0.51344771     0.73905341   
     23000   0.91428817     2.9958908      1.3142892      1.6816016      0              0.48851148     0.45580831     0.73728181   
     23100   0.87367218     2.8958922      1.2559038      1.6399885      0              0.58567281     0.25310897     0.80120669   
     23200   0.79966656     2.6470279      1.1495207      1.4975072      0              0.45486599     0.27801639     0.76462482   
     23300   0.67186287     2.5812563      0.96580288     1.6154534      0              0.53203114     0.27768246     0.80573979   
     23400   1.0609809      2.9993691      1.52516        1.4742091      0              0.44925708     0.28705504     0.737897     
     23500   0.85280911     3.1518089      1.2259131      1.9258958      0              0.65159568     0.53785917     0.73644092   
     23600   1.0818289      3.0377829      1.5551291      1.4826538      0              0.43090802     0.3419571      0.70978869   
     23700   0.90970049     2.7713902      1.3076945      1.4636957      0              0.37110938     0.3330641      0.75952226   
     23800   0.75464963     2.6397235      1.0848088      1.5549147      0              0.40175989     0.24734211     0.90581268   
     23900   0.96346002     3.0641544      1.3849738      1.6791806      0              0.33401549     0.48733083     0.85783432   
     24000   1.0237727      3.1699078      1.4716733      1.6982345      0              0.56242794     0.39938814     0.73641842   
     24100   0.85107041     3.0983783      1.2234137      1.8749646      0              0.38698018     0.6019132      0.88607121   
     24200   1.0338362      3.4745914      1.4861396      1.9884518      0              0.36778379     0.62405478     0.99661325   
     24300   1.2135177      3.5324342      1.7444317      1.7880025      0              0.23142813     0.63885612     0.91771821   
     24400   1.0178546      3.3202367      1.463166       1.8570707      0              0.3722017      0.43897915     1.0458899    
     24500   0.88047385     3.0028013      1.2656812      1.7371202      0              0.51732136     0.36997911     0.84981972   
     24600   0.74654221     2.7542126      1.0731544      1.6810581      0              0.41674006     0.50877618     0.75554188   
     24700   1.0312844      2.9131891      1.4824713      1.4307179      0              0.30586458     0.35539286     0.76946042   
     24800   1.1857197      3.3543556      1.704472       1.6498836      0              0.33101997     0.41490237     0.90396124   
     24900   1.1824575      3.2062381      1.6997827      1.5064555      0              0.27023593     0.520652       0.71556753   
     25000   1.142278       3.4045816      1.6420246      1.7625569      0              0.53881082     0.54196525     0.68178088   
     25100   1.163534       3.8130528      1.6725801      2.1404726      0              0.56010469     0.63145102     0.94891693   
     25200   1.2190522      3.7280761      1.7523876      1.9756885      0              0.60019966     0.58637256     0.7891163    
     25300   0.93381139     3.4670816      1.3423539      2.1247277      0              0.69100401     0.54406003     0.88966366   
     25400   1.0792021      3.1825228      1.551353       1.6311698      0              0.44949655     0.44620807     0.73546523   
     25500   0.96777396     3.2581523      1.3911751      1.8669772      0              0.49440575     0.54764162     0.82492981   
     25600   0.98945548     3.0569227      1.4223423      1.6345805      0              0.48010583     0.30745774     0.84701691   
     25700   1.1669187      3.2671799      1.6774456      1.5897343      0              0.34144546     0.34062937     0.90765948   
     25800   1.5596653      3.5807628      2.2420189      1.3387439      0              0.24034132     0.27146064     0.82694197   
     25900   1.2884033      3.5575865      1.8520797      1.7055068      0              0.41393911     0.44589832     0.84566939   
     26000   1.3419664      3.6719905      1.9290767      1.7429138      0              0.64754487     0.33081859     0.76455035   
     26100   1.139007       3.275803       1.6373226      1.6384804      0              0.39863777     0.33983333     0.90000928   
     26200   1.2348701      3.2998895      1.7751258      1.5247637      0              0.29031102     0.38918617     0.84526649   
     26300   0.98833185     2.8862659      1.420727       1.4655388      0              0.33873797     0.2342697      0.89253116   
     26400   1.0910041      3.3518503      1.5683184      1.7835318      0              0.32431886     0.50382878     0.95538417   
     26500   1.1843135      3.2171266      1.7024506      1.514676       0              0.40742641     0.21299149     0.89425808   
     26600   1.1808601      3.4947118      1.6974864      1.7972254      0              0.5615442      0.35523063     0.88045055   
     26700   0.96244872     3.4763475      1.38352        2.0928274      0.01164058     0.46917684     0.62028025     0.99172976   
     26800   1.0761076      3.4232489      1.5469046      1.8763442      0              0.52403358     0.49343748     0.85887318   
     26900   1.0697579      3.3513154      1.537777       1.8135384      0.011313792    0.46503441     0.54484077     0.7923494    
     27000   1.2178323      3.5661638      1.750634       1.8155299      0              0.49736129     0.28798691     1.0301817    
     27100   1.2847944      3.2108506      1.846892       1.3639586      0              0.29294395     0.22135594     0.84965869   
     27200   1.2783717      3.3760688      1.8376593      1.5384096      0              0.31609865     0.51167369     0.71063722   
     27300   1.0478592      3.1696083      1.5062975      1.6633108      0              0.35162351     0.40026114     0.91142615   
     27400   1.1755011      3.5714309      1.6897829      1.881648       0              0.57767545     0.54312636     0.76084622   
     27500   0.90193385     3.3387506      1.2965299      2.0422207      0              0.63299582     0.54370468     0.86552016   
     27600   0.98800177     3.3775079      1.4202525      1.9572554      0              0.86377136     0.32498106     0.76850296   
     27700   1.1181535      3.6216909      1.6073457      2.0143452      0              0.70690018     0.4846459      0.82279917   
     27800   1.4773804      3.73506        2.1237344      1.6113256      0              0.42072143     0.36245354     0.82815067   
     27900   1.4045681      4.0541836      2.0190666      2.035117       0              0.63869202     0.65758307     0.73884189   
     28000   1.3083018      3.6594164      1.8806838      1.7787325      0              0.60659877     0.33639958     0.8357342    
     28100   1.5638433      4.4121182      2.2480247      2.1640935      0              0.43788351     0.70974124     1.0164687    
     28200   0.93919463     3.8878491      1.3500923      2.5377568      0.011140135    0.64317177     0.48829454     1.3951504    
     28300   1.0253468      3.6785838      1.4739361      2.2046477      0              0.64919907     0.53926901     1.0161796    
     28400   1.3166088      3.8786397      1.8926251      1.9860146      0              0.56936508     0.48737483     0.92927468   
     28500   1.68128        4.2902295      2.41684        1.8733895      0              0.54551482     0.23425394     1.0936207    
     28600   1.4020649      3.7695024      2.0154683      1.7540341      0              0.41722492     0.45705178     0.87975738   
     28700   0.94577952     3.3229193      1.3595581      1.9633613      0              0.49045125     0.63994236     0.83296764   
     28800   1.116334       3.2306029      1.6047301      1.6258728      0              0.48608552     0.30218197     0.83760528   
     28900   1.1103552      3.3053679      1.5961355      1.7092324      0              0.50834452     0.31287949     0.88800834   
     29000   1.0119904      2.9635974      1.4547362      1.5088612      0              0.28911723     0.21614801     1.0035959    
     29100   0.91553686     3.3238949      1.3160842      2.0078107      0              0.47005683     0.63224144     0.90551242   
     29200   1.0280885      3.4645659      1.4778772      1.9866887      0              0.4372446      0.54468218     1.004762     
     29300   1.2669678      3.6350035      1.8212662      1.8137372      0              0.38435674     0.62344076     0.80593974   
     29400   1.1530639      3.7373384      1.6575293      2.0798091      0              0.57487796     0.50431767     1.0006135    
     29500   1.1267113      3.4270825      1.6196475      1.8074351      0              0.50927489     0.43705524     0.86110493   
     29600   1.0641374      3.4084161      1.5296975      1.8787186      0              0.56236608     0.4539339      0.8624186    
     29700   1.1280569      3.4670071      1.6215818      1.8454253      0.011133623    0.48745839     0.46139917     0.8854341    
     29800   1.1884365      3.2329204      1.7083775      1.5245429      0              0.29207201     0.36950026     0.86297061   
     29900   0.98129428     3.1355479      1.4106105      1.7249373      0              0.49374694     0.29459281     0.93659757   
     30000   1.0281914      3.4250554      1.4780251      1.9470303      0.011396897    0.46840668     0.36975247     1.0974742    
     30100   0.7668719      3.3013819      1.1023784      2.1990036      0.01210178     0.43316187     0.63776173     1.1159782    
     30200   1.1821845      3.5743274      1.6993902      1.8749372      0              0.53394701     0.58962459     0.75136558   
     30300   1.2524129      3.8019859      1.8003436      2.0016424      0              0.614609       0.40708818     0.97994519   
     30400   0.99763803     3.0662815      1.4341047      1.6321768      0              0.26266192     0.44117798     0.92833692   
     30500   0.92579915     2.968736       1.3308363      1.6378997      0              0.45602338     0.39064012     0.7912362    
     30600   0.94138905     3.1909067      1.3532468      1.8376599      0              0.5049741      0.4906146      0.84207124   
     30700   1.1954529      3.3252926      1.7184635      1.6068291      0              0.34128761     0.35194828     0.91359323   
     30800   0.95574627     2.9239193      1.3738853      1.5500341      0              0.43653369     0.34619136     0.76730902   
     30900   1.0079264      3.1057904      1.4488941      1.6568963      0              0.30533297     0.47049239     0.88107092   
     31000   1.0789006      3.2783364      1.5509197      1.7274167      0              0.52863552     0.40089411     0.79788712   
     31100   1.1365255      3.2651723      1.6337555      1.6314168      0              0.47336114     0.42310425     0.73495142   
     31200   0.87612771     3.3104137      1.2594336      2.0509801      0              0.61492997     0.481898       0.95415214   
     31300   1.2107425      3.3327837      1.7404423      1.5923414      0              0.36591605     0.43844566     0.78797967   
     31400   1.1134236      3.2445091      1.6005465      1.6439626      0              0.45460442     0.43988037     0.74947784   
     31500   0.85947719     3.0700618      1.2354985      1.8345633      0              0.62218004     0.24538864     0.96699466   
     31600   0.94325728     3.0200633      1.3559323      1.6641309      0              0.31919709     0.50514562     0.83978824   
     31700   0.88076204     3.0562747      1.2660954      1.7901792      0              0.35318997     0.64037153     0.79661772   
     31800   1.0115348      3.0214671      1.4540812      1.5673859      0              0.45272389     0.40649874     0.70816328   
     31900   0.84583796     2.7089737      1.2158921      1.4930816      0              0.41946576     0.26454836     0.80906752   
     32000   0.95625097     3.134917       1.3746108      1.7603063      0              0.50512783     0.44434409     0.81083435   
     32100   1.3466369      3.7594911      1.9357906      1.8237005      0              0.83313142     0.1679572      0.82261192   
     32200   0.98638899     3.3462537      1.4179342      1.9283195      0              0.40643833     0.59559714     0.92628407   
     32300   0.81243735     2.91945        1.1678787      1.7515713      0              0.23306471     0.67984609     0.8386605    
     32400   1.0540957      3.5172314      1.5152626      2.0019688      0              0.45882009     0.73945561     0.80369315   
     32500   1.0841102      3.6854716      1.5584084      2.1270632      0              0.69656216     0.51852323     0.91197784   
     32600   1.0786882      3.2414079      1.5506143      1.6907936      0              0.41491904     0.49546122     0.78041336   
     32700   0.75079046     2.8614011      1.0792613      1.7821398      0              0.50102203     0.50538647     0.77573127   
     32800   1.1558602      3.2141773      1.6615491      1.5526283      0              0.34361939     0.35596698     0.8530419    
     32900   0.90923689     3.1773895      1.307028       1.8703615      0              0.65809943     0.27568216     0.93657986   
     33000   1.1254723      3.3092412      1.6178664      1.6913748      0              0.47658447     0.30948265     0.90530768   
     33100   0.93490668     2.9322477      1.3439283      1.5883193      0              0.45124014     0.36080353     0.77627563   
     33200   0.81807801     3.3131728      1.1759871      2.1371857      0              0.62592271     0.48743927     1.0238237    
     33300   1.338048       3.9283074      1.923444       2.0048634      0              0.7000521      0.55191728     0.75289398   
     33400   1.3057208      3.7320624      1.8769736      1.8550888      0              0.60704159     0.46962514     0.7784221    
     33500   1.012025       3.0624631      1.4547859      1.6076772      0              0.40926968     0.38716879     0.81123874   
     33600   0.88132187     2.9986401      1.2669002      1.7317399      0              0.58481844     0.37637772     0.77054378   
     33700   0.88582441     2.9965606      1.2733726      1.723188       0              0.39483746     0.54282545     0.78552509   
     33800   0.91135415     2.9736739      1.3100716      1.6636023      0              0.37259876     0.45765979     0.8333438    
     33900   0.96622408     2.9874377      1.3889471      1.5984906      0              0.34585655     0.46721263     0.78542144   
     34000   1.0710496      3.6136831      1.5396338      2.0740493      0              0.89236391     0.38599571     0.7956897    
     34100   1.4264757      3.5340767      2.0505589      1.4835178      0              0.45811267     0.3360559      0.68934924   
     34200   1.1812526      3.125032       1.6980506      1.4269814      0              0.3999145      0.23052691     0.79653998   
     34300   0.84031923     2.8793718      1.2079589      1.6714129      0              0.59649319     0.31975459     0.75516512   
     34400   1.0327161      3.5646079      1.4845294      2.0800786      0              0.86216955     0.29573864     0.92217039   
     34500   1.2929243      3.5641437      1.8585787      1.705565       0              0.43472413     0.46157215     0.80926872   
     34600   1.2111377      3.6649869      1.7410105      1.9239764      0              0.58399109     0.5221499      0.81783543   
     34700   0.80582376     3.1065777      1.1583717      1.948206       0              0.65243663     0.47320222     0.8225672    
     34800   0.93593058     3.0239322      1.3454002      1.678532       0              0.645715       0.27536792     0.75744913   
     34900   1.1682155      3.410138       1.6793098      1.7308282      0              0.57359607     0.26595754     0.8912746    
     35000   0.97027216     3.0521857      1.3947662      1.6574195      0              0.43671341     0.44904514     0.77166096   
     35100   1.0175199      3.1157443      1.4626848      1.6530595      0              0.66279065     0.24577288     0.74449597   
     35200   0.9272718      2.9645591      1.3329532      1.6316059      0              0.50863118     0.35920611     0.76376862   
     35300   1.0273874      3.1889873      1.4768694      1.7121178      0              0.58466707     0.39475665     0.7326941    
     35400   1.1686078      3.3067662      1.6798737      1.6268926      0              0.42842155     0.45416243     0.74430859   
     35500   0.8955075      3.0607945      1.287292       1.7735025      0              0.5033904      0.53291969     0.73719236   
     35600   1.0243128      3.2791293      1.4724497      1.8066796      0              0.58152754     0.37811255     0.84703951   
     35700   0.94670661     3.1933375      1.3608908      1.8324468      0              0.54673113     0.48390095     0.80181471   
     35800   0.92816724     3.3311973      1.3342404      1.9969569      0              0.62453973     0.684454       0.68796316   
     35900   1.132828       3.2060597      1.6284403      1.5776194      0              0.45003838     0.37720463     0.75037641   
     36000   1.0541478      3.1956499      1.5153374      1.6803125      0              0.46432844     0.39302369     0.82296037   
     36100   1.0403058      2.8910105      1.4954396      1.3955709      0              0.49565535     0.19086068     0.70905486   
     36200   1.2660622      3.1742243      1.8199644      1.3542598      0              0.30966434     0.27872758     0.76586792   
     36300   0.9972555      3.0476634      1.4335548      1.6141087      0              0.49186812     0.37152151     0.75071902   
     36400   1.1130444      3.2226096      1.6000014      1.6226082      0              0.36418334     0.32603229     0.93239257   
     36500   1.0675203      3.2887812      1.5345604      1.7542208      0              0.41548365     0.4451671      0.8935701    
     36600   0.85957573     3.008552       1.2356401      1.7729119      0              0.50019683     0.42162433     0.85109072   
     36700   0.96009741     3.2522485      1.38014        1.8721085      0              0.51724667     0.57235147     0.78251037   
     36800   0.97159636     2.8566935      1.3966698      1.4600238      0              0.39299367     0.24202419     0.82500591   
     36900   0.6926364      2.5093386      0.99566483     1.5136738      0              0.40791593     0.30097993     0.80477793   
     37000   0.9646256      2.9288756      1.3866493      1.5422263      0              0.43523739     0.29498966     0.81199921   
     37100   1.2842804      3.2303322      1.8461531      1.3841791      0              0.29770424     0.26990779     0.81656712   
     37200   0.98808962     3.2885307      1.4203788      1.8681519      0              0.59143777     0.49533368     0.78138047   
     37300   0.91171012     3.0909589      1.3105833      1.7803756      0              0.37762885     0.59665447     0.80609229   
     37400   0.68441148     2.5948007      0.9838415      1.6109592      0              0.35454982     0.46370722     0.79270217   
     37500   0.76949905     2.8941434      1.1061549      1.7879885      0              0.61523541     0.45173701     0.72101609   
     37600   0.74385982     2.7799358      1.0692985      1.7106374      0              0.5820339      0.33050758     0.79809588   
     37700   1.0945201      3.2605604      1.5733726      1.6871877      0              0.49247603     0.38796285     0.80674882   
     37800   1.3332303      3.5869078      1.9165186      1.6703893      0              0.59056425     0.35517425     0.72465076   
     37900   1.2141603      3.3325613      1.7453555      1.5872058      0              0.38957235     0.46125685     0.73637664   
     38000   0.98668812     3.1137013      1.4183642      1.6953371      0              0.49464785     0.36520663     0.83548266   
     38100   0.97675655     3.1321035      1.4040875      1.728016       0              0.45144301     0.37333694     0.90323606   
     38200   0.88233597     3.0435289      1.268358       1.7751709      0              0.4729599      0.51212428     0.79008673   
     38300   1.0459387      3.2234908      1.5035369      1.7199538      0              0.35365264     0.40831298     0.95798821   
     38400   1.0568022      3.3091276      1.5191532      1.7899744      0              0.3916075      0.37929813     1.0190687    
     38500   1.0549281      3.2957356      1.5164591      1.7792765      0              0.40251936     0.41852101     0.95823612   
     38600   0.90528392     3.5312777      1.3013456      2.2299321      0              0.93074589     0.46304336     0.83614282   
     38700   1.0065945      3.2467837      1.4469797      1.799804       0              0.55955285     0.16390595     1.0763452    
     38800   0.80574226     3.1451562      1.1582545      1.9869017      0              0.34485914     0.84075438     0.80128819   
     38900   1.1289164      3.1743724      1.6228174      1.551555       0              0.4579327      0.38501477     0.70860752   
     39000   0.96064635     3.3266158      1.3809291      1.9456867      0              0.70998684     0.46271241     0.77298746   
     39100   1.0502316      2.899701       1.5097079      1.3899931      0              0.20330518     0.4391483      0.74753963   
     39200   1.0435833      3.2781282      1.500151       1.7779772      0              0.46276187     0.49404488     0.82117048   
     39300   1.0112303      3.1780398      1.4536435      1.7243963      0              0.63367174     0.34034466     0.75037989   
     39400   1.2439937      3.6799969      1.788241       1.8917559      0              0.50786825     0.47078173     0.91310593   
     39500   1.0796436      3.3994654      1.5519877      1.8474777      0              0.50797469     0.60650646     0.73299658   
     39600   0.90579316     3.1757562      1.3020777      1.8736786      0              0.41743644     0.41756125     1.0386809    
     39700   1.0501643      3.3860557      1.5096112      1.8764445      0              0.70686681     0.41060374     0.75897394   
     39800   1.02743        3.1684367      1.4769307      1.691506       0              0.41433636     0.47404067     0.80312899   
     39900   0.79694555     3.0223378      1.1456092      1.8767285      0              0.41983098     0.48558501     0.97131255   
     40000   1.2760423      3.5091108      1.8343109      1.6747999      0              0.43780352     0.34615751     0.8908389    
     40100   0.91763958     3.1349327      1.3191069      1.8158258      0              0.51904823     0.23126478     1.0655128    
     40200   1.0998669      3.6290071      1.5810586      2.0479485      0              0.60749657     0.49945518     0.94099672   
     40300   1.1719298      3.5141887      1.6846491      1.8295396      0              0.53031082     0.57220086     0.72702791   
     40400   1.1293512      3.6480732      1.6234424      2.0246308      0              0.80153535     0.44388866     0.77920681   
     40500   1.0424666      3.3715093      1.4985458      1.8729635      0              0.47465566     0.64552616     0.75278171   
     40600   0.99826481     3.0724175      1.4350057      1.6374118      0              0.43522814     0.40823256     0.79395114   
     40700   0.92778261     3.0152976      1.3336875      1.6816101      0              0.463951       0.47469771     0.74296143   
     40800   0.77830568     2.6601551      1.1188144      1.5413407      0              0.44873968     0.37209677     0.72050427   
     40900   0.8859496      2.8630689      1.2735525      1.5895163      0              0.46268083     0.36574196     0.76109353   
     41000   1.0605182      3.1858495      1.5244949      1.6613545      0              0.47599746     0.43532079     0.75003627   
     41100   1.1667458      3.3666991      1.6771972      1.689502       0              0.55772768     0.39458636     0.73718793   
     41200   1.224403       3.3768663      1.7600793      1.616787       0              0.40975631     0.42663494     0.78039574   
     41300   1.3903149      3.7910446      1.9985777      1.7924669      0              0.61757399     0.36204009     0.81285279   
     41400   0.92073059     3.0530071      1.3235502      1.7294568      0              0.40005074     0.55433075     0.77507535   
     41500   0.70115705     2.4568038      1.0079133      1.4488905      0              0.35025841     0.28159094     0.81704117   
     41600   0.76507297     2.4061973      1.0997924      1.3064049      0              0.31181586     0.29141352     0.7031755    
     41700   0.94161484     2.7312539      1.3535713      1.3776826      0              0.45202884     0.19319656     0.73245717   
     41800   0.93157263     3.1035459      1.3391357      1.7644102      0              0.41012447     0.54836771     0.80591804   
     41900   1.2167774      3.6251922      1.7491175      1.8760747      0              0.83584232     0.28361827     0.75661408   
     42000   1.1357796      3.3705609      1.6326832      1.7378777      0              0.47416002     0.26422076     0.99949693   
     42100   1.1689589      3.4075353      1.6803784      1.7271569      0              0.54244532     0.44635045     0.73836111   
     42200   1.0957863      3.4290633      1.5751927      1.8538706      0              0.56130474     0.3895332      0.90303264   
     42300   1.0722975      3.0969318      1.5414277      1.5555042      0              0.31640839     0.40288219     0.83621359   
     42400   0.83277042     2.9473946      1.1971075      1.7502871      0              0.51411622     0.4470677      0.78910321   
     42500   0.99578885     3.346659       1.4314465      1.9152125      0              0.51912502     0.5476491      0.84843841   
     42600   0.89788872     3.1530256      1.290715       1.8623106      0              0.53249532     0.57595795     0.75385734   
     42700   1.0544336      3.0964245      1.5157483      1.5806761      0              0.42752706     0.37545374     0.77769534   
     42800   1.0602586      3.0207927      1.5241217      1.496671       0              0.42751683     0.30192089     0.76723325   
     42900   1.0794573      3.0869583      1.5517199      1.5352384      0              0.46191689     0.28964972     0.78367179   
     43000   1.0445012      3.1415027      1.5014705      1.6400322      0              0.47098201     0.36077131     0.80827884   
     43100   0.9617073      2.8518032      1.3824542      1.469349       0              0.40870321     0.31082026     0.74982549   
     43200   0.96974761     3.2496057      1.3940122      1.8555935      0              0.64150777     0.45950143     0.75458426   
     43300   1.0486875      3.3119954      1.5074882      1.8045072      0              0.56820651     0.38713741     0.84916328   
     43400   1.0384734      3.4725447      1.4928056      1.9797391      0              0.66461758     0.54839769     0.76672384   
     43500   1.0459457      3.1205827      1.5035469      1.6170358      0              0.54501537     0.27438886     0.79763158   
     43600   1.2176104      3.1917619      1.7503149      1.441447       0              0.36139293     0.38976945     0.69028458   
     43700   0.75706235     3.0298928      1.0882771      1.9416157      0              0.63374281     0.37121952     0.93665334   
     43800   1.0710488      3.1188423      1.5396327      1.5792096      0              0.37878045     0.46402975     0.73639942   
     43900   0.83235055     2.9984048      1.1965039      1.8019009      0              0.63216666     0.33846369     0.83127055   
     44000   0.9076978      3.275101       1.3048156      1.9702854      0              0.6077773      0.49977474     0.86273335   
     44100   0.94083859     2.9894175      1.3524555      1.6369621      0              0.37133731     0.44690198     0.81872277   
     44200   0.97673988     3.0589469      1.4040636      1.6548833      0              0.38542243     0.41134091     0.85811996   
     44300   0.87738012     3.2630294      1.2612339      2.0017955      0              0.7141814      0.34570601     0.94190811   
     44400   1.1434871      3.6123238      1.6437626      1.9685612      0              0.38257315     0.65437656     0.93161149   
     44500   0.81550629     2.9344363      1.1722903      1.762146       0              0.37345552     0.51391424     0.87477622   
     44600   0.60265427     2.4807426      0.86631551     1.6144271      0              0.37522542     0.42925811     0.80994361   
     44700   0.71109934     2.5144799      1.0222053      1.4922746      0              0.23855883     0.49328704     0.76042876   
     44800   0.91124346     2.9272817      1.3099125      1.6173692      0              0.47974694     0.38061614     0.75700614   
     44900   1.1430149      3.3110026      1.6430839      1.6679186      0              0.55725885     0.33038458     0.78027522   
     45000   0.81705464     3.1392265      1.174516       1.9647104      0              0.51183964     0.54115838     0.91171241   
     45100   0.92393239     3.2013969      1.3281528      1.8732441      0              0.46259684     0.53839966     0.87224762   
     45200   0.88060041     3.218407       1.2658631      1.9525439      0              0.51278367     0.66942061     0.7703396    
     45300   1.1133584      3.6193191      1.6004527      2.0188664      0              0.43538907     0.64072827     0.94274908   
     45400   1.0613363      3.4610727      1.5256709      1.9354018      0              0.617362       0.59474151     0.7232983    
     45500   0.96374267     2.902629       1.3853801      1.5172489      0              0.41381599     0.30255059     0.80088235   
     45600   0.76490852     2.8815295      1.099556       1.7819735      0              0.62164215     0.4751787      0.68515268   
     45700   0.64516463     2.6821891      0.92742415     1.7547649      0              0.49072133     0.42320091     0.84084269   
     45800   0.75853995     2.8108209      1.0904012      1.7204197      0              0.70978405     0.17694924     0.83368643   
     45900   1.1776848      3.5346794      1.6929219      1.8417575      0              0.48766307     0.53695775     0.81713668   
     46000   0.93746418     3.3440018      1.3476048      1.996397       0              0.53582889     0.42062591     1.0399422    
     46100   1.0318568      3.1861446      1.4832941      1.7028505      0              0.32008701     0.31214515     1.0706184    
     46200   1.4393192      3.8429991      2.0690214      1.7739778      0              0.3812626      0.57867927     0.81403592   
     46300   1.3866494      3.8190621      1.9933085      1.8257536      0              0.65173536     0.38902603     0.78499219   
     46400   1.1766531      3.4050202      1.6914388      1.7135815      0              0.52645411     0.4230766      0.76405074   
     46500   1.057304       3.4269796      1.5198746      1.907105       0              0.64951792     0.51171377     0.74587335   
     46600   1.0690537      3.4885557      1.5367647      1.951791       0              0.56576335     0.35823784     1.0277898    
     46700   1.0036176      3.2588541      1.4427003      1.8161538      0              0.5025674      0.28966508     1.0239213    
     46800   0.85719816     2.9779111      1.2322224      1.7456888      0              0.58438201     0.25251165     0.90879513   
     46900   0.73659568     2.5400356      1.0588563      1.4811793      0              0.31601231     0.24600295     0.91916404   
     47000   0.7300255      2.8110765      1.0494117      1.7616648      0              0.36441709     0.53792284     0.85932491   
     47100   1.2382234      3.6375261      1.7799461      1.8575799      0              0.37554332     0.41671294     1.0653237    
     47200   1.0910437      3.3982949      1.5683754      1.8299195      0              0.4142301      0.49314226     0.92254715   
     47300   1.0677613      3.3244917      1.5349068      1.7895849      0              0.56956299     0.29199335     0.92802857   
     47400   0.69804307     3.0344339      1.0034369      2.030997       0              0.55211251     0.60718676     0.87169769   
     47500   1.0023074      2.9874513      1.4408168      1.5466345      0              0.27491725     0.44262742     0.82908982   
     47600   0.9001324      2.8292379      1.2939403      1.5352975      0              0.27630769     0.46113853     0.79785132   
     47700   0.76167199     2.6788892      1.0949035      1.5839857      0              0.38450997     0.33329103     0.8661847    
     47800   0.90382579     2.9121178      1.2992496      1.6128683      0              0.47731241     0.23667753     0.89887831   
     47900   1.0091326      2.9483383      1.4506282      1.4977101      0              0.39998833     0.28194866     0.81577312   
     48000   0.82938091     2.9867713      1.1922351      1.7945363      0              0.64944908     0.35403609     0.79105112   
     48100   0.95698084     3.0503324      1.37566        1.6746724      0              0.62484587     0.2788999      0.77092662   
     48200   0.95635927     2.6850338      1.3747664      1.3102674      0              0.29008412     0.32128873     0.69889452   
     48300   1.1754702      3.2308265      1.6897384      1.5410881      0              0.36520306     0.33250607     0.84337893   
     48400   1.2153987      3.6406987      1.7471356      1.8935631      0              0.64052627     0.33801946     0.91501737   
     48500   0.98557864     3.0490616      1.4167693      1.6322923      0              0.38351597     0.49493032     0.75384605   
     48600   1.0133493      3.2405569      1.4566896      1.7838673      0              0.64522053     0.38468268     0.75396412   
     48700   1.0095364      3.0225284      1.4512086      1.5713199      0              0.43507438     0.25073782     0.88550767   
     48800   0.74893049     2.9072492      1.0765876      1.8306616      0              0.56104865     0.42760922     0.84200376   
     48900   0.94426742     2.810847       1.3573844      1.4534625      0              0.38878127     0.22723595     0.83744532   
     49000   0.86092548     2.9235381      1.2375804      1.6859577      0              0.42863782     0.41557599     0.84174388   
     49100   1.142714       3.2076505      1.6426514      1.5649991      0              0.46123949     0.33198591     0.77177374   
     49200   0.90281803     3.1331679      1.2978009      1.835367       0              0.4043221      0.61296321     0.81808168   
     49300   1.0754849      2.8665735      1.5460095      1.320564       0              0.20746226     0.36592329     0.74717848   
     49400   1.042154       2.9049123      1.4980964      1.4068159      0              0.36659905     0.26212692     0.77808991   
     49500   0.83113271     2.740622       1.1947533      1.5458687      0              0.45063633     0.24671752     0.84851488   
     49600   1.1771934      3.4718587      1.6922155      1.7796432      0              0.47566944     0.40949879     0.89447502   
     49700   1.1105159      3.3432118      1.5963666      1.7468452      0              0.72065639     0.21581159     0.81037722   
     49800   1.0890295      3.5239584      1.56548        1.9584785      0              0.58757864     0.41981736     0.95108247   
     49900   0.88910448     3.5680669      1.2780877      2.2899792      0              0.9845585      0.43510624     0.87031451   
     50000   1.3292227      3.6565758      1.9107577      1.7458182      0              0.59804012     0.47883397     0.66894408   
     50100   0.85834917     2.8416518      1.2338769      1.6077749      0              0.46016208     0.35769214     0.7899207    
     50200   0.85243443     2.9108462      1.2253745      1.6854717      0              0.56193051     0.37713797     0.74640324   
     50300   1.0041693      3.4311965      1.4434934      1.9877032      0              0.5609798      0.61761539     0.809108     
     50400   1.0672833      3.0873835      1.5342197      1.5531638      0              0.39748274     0.20168267     0.95399835   
     50500   1.1866495      3.3332332      1.7058086      1.6274245      0              0.42279693     0.3772549      0.8273727    
     50512   1.1568069      3.3637426      1.6629099      1.7008327      0              0.34293526     0.48372907     0.87416839   
Loop time of 0.494522 on 10 procs for 50000 steps with 24 atoms

Performance: 43678529.221 tau/day, 101107.707 timesteps/s, 2.427 Matom-step/s
97.2% CPU use with 10 MPI tasks x no OpenMP threads

MPI task timing breakdown:
Section |  min time  |  avg time  |  max time  |%varavg| %total
---------------------------------------------------------------
Pair    | 0.0056428  | 0.0065633  | 0.0080142  |   0.8 |  1.33
Bond    | 0.0022755  | 0.01222    | 0.05499    |  13.8 |  2.47
Neigh   | 0.068325   | 0.0716     | 0.076076   |   1.1 | 14.48
Comm    | 0.039954   | 0.11698    | 0.21931    |  18.7 | 23.65
Output  | 0.016924   | 0.017274   | 0.017728   |   0.2 |  3.49
Modify  | 0.011614   | 0.014307   | 0.026424   |   3.5 |  2.89
Other   |            | 0.2556     |            |       | 51.68

Nlocal:            2.4 ave          11 max           0 min
Histogram: 7 0 0 0 1 0 0 1 0 1
Nghost:            3.2 ave          13 max           0 min
Histogram: 6 0 0 2 0 0 0 1 0 1
Neighs:              0 ave           0 max           0 min
Histogram: 10 0 0 0 0 0 0 0 0 0

Total # of neighbors = 0
Ave neighs/atom = 0
Ave special neighs/atom = 5.5
Neighbor list builds = 4751
Dangerous builds = 0
System init for write_restart ...
Generated 0 of 0 mixed pair_coeff terms from geometric mixing rule
System init for write_data ...
Generated 0 of 0 mixed pair_coeff terms from geometric mixing rule
Total wall time: 0:00:00
